LAMMPS (4 Jul 2026 - Development - patch_4Jul2026-178-gc4fe7a5bcf)
# =============================================================================
# 两板间液体：上板机械控压（恒力）+ 流体 NVT
# -----------------------------------------------------------------------------
# 体系约定（与 data.lmp / Packmol 一致）：
#   molecule 1 = 上板（upper）  molecule 2 = 下板（lower）
#   type 1 = 墙碳 C    type 2 = 水 H (Hw)    type 3 = 水 O (Ow)
# 控压思路：对上板施加沿 −z 的恒力 F = −P·A，等效目标压力 mypress；
#           下板不积分 → 位置固定；流体用 NVT。
# =============================================================================

# ----- 可调参数 -----
variable        myrand          equal   49303           # 速度初始化随机种子
variable        mytemp          equal   300.0           # 流体目标温度 [K]
variable        mypress         equal   1.0             # 上板目标压力 [atm]

# ----- 基本设置 -----
units           real
boundary        p p p                                   # x/y/z 均周期；z 向靠两板夹持

atom_style      full
bond_style      harmonic
angle_style     harmonic
special_bonds   amber                                   # 1-2/1-3/1-4 权重与 AMBER/GAFF 一致

pair_style      lj/cut/coul/long  10.0  10.0             # LJ + 截断库仑；无长程 kspace
pair_modify     mix arithmetic  shift yes
kspace_style    pppm  1.0e-4                            # 若改用长程静电势，取消注释并调整 pair_style

read_data       data.lmp
Reading data file ...
  orthogonal box = (-16.8291 -16.6565 -50) to (16.8291 16.6565 50)
  2 by 1 by 4 MPI processor grid
  reading atoms ...
  7792 atoms
  scanning bonds ...
  1 = max bonds/atom
  scanning angles ...
  1 = max angles/atom
  orthogonal box = (-16.8291 -16.6565 -50) to (16.8291 16.6565 50)
  2 by 1 by 4 MPI processor grid
  reading bonds ...
  4000 bonds
  reading angles ...
  2000 angles
Finding 1-2 1-3 1-4 neighbors ...
  special bond factors lj:    0        0        0.5     
  special bond factors coul:  0        0        0.8333333333333334
     2 = max # of 1-2 neighbors
     1 = max # of 1-3 neighbors
     1 = max # of 1-4 neighbors
     2 = max # of special neighbors
  special bonds CPU = 0.000 seconds
  read_data CPU = 0.036 seconds

# LJ 参数：ε [kcal/mol]，σ [Å]（同种；异种由 arithmetic 混合）
pair_coeff      1  1    0.105000    3.430851            # C（墙）
pair_coeff      2  2    0.000000    1.000000            # Hw（SPC/E 氢，ε=0）
pair_coeff      3  3    0.155300    3.166000            # Ow（SPC/E 氧）

neighbor        2.0  bin
neigh_modify    delay 0  every 1  check yes

timestep        1.0                                     # [fs]，units real

# ----- 分组 -----
group           upper   molecule  1                     # 上板
896 atoms in group upper
group           lower   molecule  2                     # 下板（本脚本不积分 → 固定）
896 atoms in group lower
group           wall    molecule  1 2                   # 上下板合计
1792 atoms in group wall
group           fluid   type      2 3                   # 水（H + O）
6000 atoms in group fluid

# ----- 能量最小化（墙先冻住，避免板被推散）-----
fix             freeze  wall  setforce  0 0 0
minimize        0.0  1.0e-8  1000  100000
PPPM initialization ...
  using 12-bit tables for long-range coulomb
  G vector (1/distance) = 0.25778895
  grid = 18 18 40
  stencil order = 5
  estimated absolute RMS force accuracy = 0.028150267
  estimated relative force accuracy = 8.4773694e-05
  using double precision KISS FFT
  3d grid and FFT values/proc = 6000 1620
Generated 3 of 3 mixed pair_coeff terms from arithmetic mixing rule
Neighbor list info ...
  update: every = 1 steps, delay = 0 steps, check = yes
  max neighbors/atom: 2000, page size: 100000
  master list distance cutoff = 12
  ghost atom cutoff = 12
  binsize = 6, bins = 6 6 17
  1 neighbor lists, perpetual/occasional/extra = 1 0 0
  (1) pair lj/cut/coul/long, perpetual
      attributes: half, newton on
      pair build: half/bin/newton
      stencil: half/bin/3d
      bin: standard
Per MPI rank memory allocation (min/avg/max) = 9.139 | 9.805 | 10.3 Mbytes
   Step          Temp          E_pair         E_mol          TotEng         Press     
         0   0              246278.2       4.3101914e-07  246278.2       655403.3     
       975   0              215919.21      2396.7921      218316         647453.82    
Loop time of 15.1805 on 8 procs for 975 steps with 7792 atoms

99.6% CPU use with 8 MPI tasks x no OpenMP threads

Minimization stats:
  Stopping criterion = linesearch alpha is zero
  Energy initial, next-to-last, final = 
      246278.195584728   218315.998747861   218315.998747861
  Force two-norm initial, final = 1203.4276 11.211181
  Force max component initial, final = 57.939007 1.7670724
  Final line search alpha, max atom move = 5.4502048e-11 9.6309062e-11
  Iterations, force evaluations = 975 1934

MPI task timing breakdown:
Section |  min time  |  avg time  |  max time  |%varavg| %total
---------------------------------------------------------------
Pair    | 3.4649     | 7.0874     | 9.7342     |  92.3 | 46.69
Bond    | 0.011228   | 0.024367   | 0.036768   |   7.8 |  0.16
Kspace  | 4.8802     | 7.5432     | 11.182     |  90.0 | 49.69
Neigh   | 0.25955    | 0.2597     | 0.25987    |   0.0 |  1.71
Comm    | 0.17194    | 0.1859     | 0.19818    |   2.4 |  1.22
Output  | 0          | 0          | 0          |   0.0 |  0.00
Modify  | 0.0017747  | 0.003018   | 0.0042923  |   2.1 |  0.02
Other   |            | 0.07699    |            |       |  0.51

Nlocal:            974 ave        1206 max         711 min
Histogram: 2 1 1 0 0 0 0 0 0 4
Nghost:         6898.5 ave        7794 max        6050 min
Histogram: 2 2 0 0 0 0 0 2 0 2
Neighs:         267774 ave      382453 max      114121 min
Histogram: 2 0 0 2 0 0 0 0 1 3

Total # of neighbors = 2142192
Ave neighs/atom = 274.92197
Ave special neighs/atom = 1.5400411
Neighbor list builds = 31
Dangerous builds = 0
unfix           freeze
reset_timestep  0

# ----- 上板质心 z、流体温度（供 thermo / 控压监控）-----
variable        upper_cmz       equal   xcm(upper,z)

compute         fluid_temp  fluid  temp
variable        fluid_temp  equal  c_fluid_temp

# SPC/E：约束 O–H 键（bond type 1）；按 data.lmp 中实际 bond type 核对
fix             myshake  all  shake  0.0001  20  0  b  1
Finding SHAKE clusters ...
       0 = # of size 2 clusters
    2000 = # of size 3 clusters
       0 = # of size 4 clusters
       0 = # of frozen angles
  find clusters CPU = 0.000 seconds

# =============================================================================
# 上板机械控压：F_z = −P · A
#   convert 把 [atm]·[Å²] 换成 LAMMPS real 力单位 [kcal/(mol·Å)]
#   count(upper) 把总力均分到上板各原子（aveforce）
#   setforce 0 0 NULL：x/y 锁死，z 由 aveforce + nve 运动
# =============================================================================
velocity        upper  set  0 0 0  units box            # 上板初速度清零

variable        atm2Pa          equal   101325.0
variable        A2m             equal   1.0e-10
variable        Na              equal   6.022e23
variable        convert         equal   ${atm2Pa}*${A2m}*${A2m}*${A2m}*${Na}/4.184/1000
variable        convert         equal   101325*${A2m}*${A2m}*${A2m}*${Na}/4.184/1000
variable        convert         equal   101325*1e-10*${A2m}*${A2m}*${Na}/4.184/1000
variable        convert         equal   101325*1e-10*1e-10*${A2m}*${Na}/4.184/1000
variable        convert         equal   101325*1e-10*1e-10*1e-10*${Na}/4.184/1000
variable        convert         equal   101325*1e-10*1e-10*1e-10*6.022e+23/4.184/1000
variable        force           equal   -${mypress}*${convert}*lx*ly/count(upper)
variable        force           equal   -1*${convert}*lx*ly/count(upper)
variable        force           equal   -1*1.45836316921606e-05*lx*ly/count(upper)

fix             aveforce    upper  aveforce  0 0 ${force}
fix             aveforce    upper  aveforce  0 0 -1.82499765014072e-05
fix             setforce    upper  setforce  0 0 NULL
fix             upper_nve   upper  nve

# ----- 流体恒温；下板无 time-integration → 保持最小化后坐标 -----
fix             mynvt  fluid  nvt  temp  ${mytemp}  ${mytemp}  1000
fix             mynvt  fluid  nvt  temp  300  ${mytemp}  1000
fix             mynvt  fluid  nvt  temp  300  300  1000
fix_modify      mynvt  temp  fluid_temp
WARNING: Temperature for fix modify is not for group all (src/fix_nh.cpp:1546)


# 热力学输出写入默认 log.lammps（及屏幕）；列与原先监控量对齐
thermo_style    custom  step  time  v_fluid_temp  atoms                          pxx  pyy  pzz  lx  ly  lz  v_upper_cmz
thermo_modify   flush yes
thermo          1000

# ----- 平衡前给流体赋 Maxwell 速度 -----
velocity        fluid  create  ${mytemp}  ${myrand}  mom yes  rot yes
velocity        fluid  create  300  ${myrand}  mom yes  rot yes
velocity        fluid  create  300  49303  mom yes  rot yes

write_data      result_atoms.data  nofix
System init for write_data ...
PPPM initialization ...
  using 12-bit tables for long-range coulomb
  G vector (1/distance) = 0.25778895
  grid = 18 18 40
  stencil order = 5
  estimated absolute RMS force accuracy = 0.028150267
  estimated relative force accuracy = 8.4773694e-05
  using double precision KISS FFT
  3d grid and FFT values/proc = 6000 1620
Generated 3 of 3 mixed pair_coeff terms from arithmetic mixing rule
dump            mydump  all  custom  100000  result_atoms.lammpstrj  id type xsu ysu zsu

# ----- 沿 z 的局部应力 / 数密度剖面（chunk + ave/chunk）-----
compute         mystress  all  stress/atom  NULL
compute         mybins    all  chunk/atom  bin/1d  z  center  0.1  units box  discard yes
fix             stress_profile  all  ave/chunk  1000  100  100000  mybins                  c_mystress[1]  c_mystress[2]  c_mystress[3]  density/number                  norm all  ave running  overwrite  file result_profile_stress.log

# ----- 生产段：1e6 步 × 1 fs = 1 ns -----
run             1000000
PPPM initialization ...
  using 12-bit tables for long-range coulomb
  G vector (1/distance) = 0.25778895
  grid = 18 18 40
  stencil order = 5
  estimated absolute RMS force accuracy = 0.028150267
  estimated relative force accuracy = 8.4773694e-05
  using double precision KISS FFT
  3d grid and FFT values/proc = 6000 1620
Generated 3 of 3 mixed pair_coeff terms from arithmetic mixing rule
Per MPI rank memory allocation (min/avg/max) = 12.37 | 13 | 13.43 Mbytes
   Step          Time       v_fluid_temp     Atoms         Pxx            Pyy            Pzz             Lx             Ly             Lz        v_upper_cmz  
         0   0              300                 7792   695639.75      695115.89      556741.35      33.6582        33.313         100            40           
      1000   1000           136.67805           7792   693727.79      693071.93      555402.45      33.6582        33.313         100            39.888359    
      2000   2000           158.51392           7792   694061.85      693838.78      556147.75      33.6582        33.313         100            39.50964     
      3000   3000           183.82551           7792   694260.54      693933.48      556103.46      33.6582        33.313         100            38.810185    
      4000   4000           210.55229           7792   693986.12      694038.76      556520.41      33.6582        33.313         100            37.832188    
      5000   5000           233.29531           7792   693695.97      693664.21      556466.75      33.6582        33.313         100            36.609202    
      6000   6000           260.761             7792   693859.4       694036.99      556821.55      33.6582        33.313         100            35.154466    
      7000   7000           272.47851           7792   694224.27      694301.69      556549.35      33.6582        33.313         100            33.466132    
      8000   8000           294.24997           7792   694040.09      693946.22      556917.81      33.6582        33.313         100            31.459914    
      9000   9000           302.88074           7792   694397.7       694634.14      556804.65      33.6582        33.313         100            29.183201    
     10000   10000          312.04735           7792   694428.42      694072.09      557069.49      33.6582        33.313         100            27.042271    
     11000   11000          314.71705           7792   694414.87      694401.8       556595.09      33.6582        33.313         100            25.13215     
     12000   12000          304.62369           7792   694401.8       694902.58      557392.6       33.6582        33.313         100            23.515253    
     13000   13000          300.69606           7792   694919.24      694928.66      556853.18      33.6582        33.313         100            22.11902     
     14000   14000          290.63762           7792   694888.41      694801.56      557210.79      33.6582        33.313         100            21.104438    
     15000   15000          295.48611           7792   694818.48      695423.22      556967.46      33.6582        33.313         100            20.542491    
     16000   16000          290.36022           7792   694673.13      695079.61      557314.77      33.6582        33.313         100            20.411933    
     17000   17000          295.75714           7792   694374.64      694936.84      557175.56      33.6582        33.313         100            20.48401     
     18000   18000          304.24473           7792   694963.08      694762.34      556821.42      33.6582        33.313         100            21.024702    
     19000   19000          300.28665           7792   694708.63      694461.67      556814.05      33.6582        33.313         100            21.621267    
     20000   20000          298.62165           7792   694338.5       694224.51      556312.69      33.6582        33.313         100            22.398159    
     21000   21000          302.9327            7792   694036.81      694424.53      556589.13      33.6582        33.313         100            23.108568    
     22000   22000          296.42216           7792   693841.93      694039.59      556230.91      33.6582        33.313         100            23.71189     
     23000   23000          301.07412           7792   693875.41      694000.77      556213.25      33.6582        33.313         100            24.060794    
     24000   24000          303.06634           7792   693887.62      694227.12      556111.08      33.6582        33.313         100            24.308241    
     25000   25000          298.91782           7792   694203.83      694044.93      556172         33.6582        33.313         100            24.582745    
     26000   26000          297.89082           7792   693899.21      694028.87      556697.33      33.6582        33.313         100            24.672661    
     27000   27000          297.04928           7792   694021.34      694032.04      556534.54      33.6582        33.313         100            24.368046    
     28000   28000          300.95034           7792   694315.25      694276.14      556496.78      33.6582        33.313         100            23.859289    
     29000   29000          296.23352           7792   694571.74      694371.59      556542.43      33.6582        33.313         100            23.442711    
     30000   30000          300.04515           7792   694186.21      694137.41      556334.97      33.6582        33.313         100            23.04226     
     31000   31000          301.66351           7792   693996         694686.86      556780.6       33.6582        33.313         100            22.593189    
     32000   32000          304.02971           7792   693995.37      694538.4       556796.64      33.6582        33.313         100            22.260855    
     33000   33000          304.36842           7792   694428.58      694440.72      556595.64      33.6582        33.313         100            22.129965    
     34000   34000          297.08064           7792   694379.69      694424.61      556760.39      33.6582        33.313         100            21.838245    
     35000   35000          294.6867            7792   694516.4       694579.12      556847.68      33.6582        33.313         100            21.619524    
     36000   36000          299.79569           7792   694493.81      694580.38      556767.2       33.6582        33.313         100            21.797029    
     37000   37000          291.7765            7792   694530.2       694238.08      556171.96      33.6582        33.313         100            22.057785    
     38000   38000          295.55262           7792   694528.32      693960.33      556944.8       33.6582        33.313         100            22.219643    
     39000   39000          304.32135           7792   694208.91      694579.25      556687.69      33.6582        33.313         100            22.459992    
     40000   40000          301.09677           7792   694262.59      694394.47      556658.46      33.6582        33.313         100            23.017192    
     41000   41000          303.12409           7792   694283.64      694419.85      556635.36      33.6582        33.313         100            23.442331    
     42000   42000          300.41006           7792   694390.39      694182.23      556351.92      33.6582        33.313         100            23.681344    
     43000   43000          298.65856           7792   693972.79      693573.59      556491.77      33.6582        33.313         100            23.754031    
     44000   44000          297.60054           7792   694317.14      694247.38      556355.72      33.6582        33.313         100            23.740784    
     45000   45000          297.98071           7792   694134.89      694153.26      556605.88      33.6582        33.313         100            23.682865    
     46000   46000          299.76048           7792   694222.8       694406.7       556273.15      33.6582        33.313         100            23.61107     
     47000   47000          300.88788           7792   693867.8       694638.72      556765.63      33.6582        33.313         100            23.388856    
     48000   48000          307.58233           7792   694148.42      694114.73      556541.09      33.6582        33.313         100            23.074119    
     49000   49000          303.5754            7792   694008.2       694736.49      556912.67      33.6582        33.313         100            22.76643     
     50000   50000          302.80901           7792   694340.35      694338.06      556647.91      33.6582        33.313         100            22.455706    
     51000   51000          299.82543           7792   694182.73      694740.54      556848.21      33.6582        33.313         100            22.144593    
     52000   52000          298.32506           7792   693893.95      694355.42      556636.77      33.6582        33.313         100            21.821136    
     53000   53000          297.134             7792   694597.96      694386.71      556890.61      33.6582        33.313         100            21.583873    
     54000   54000          297.03005           7792   695041.33      694831.4       557153.51      33.6582        33.313         100            21.749493    
     55000   55000          303.52105           7792   694772.91      694683.54      556745.3       33.6582        33.313         100            21.696306    
     56000   56000          302.6631            7792   694713.24      694027.63      556607.05      33.6582        33.313         100            21.998383    
     57000   57000          298.73407           7792   694413.3       694149.91      556380.82      33.6582        33.313         100            22.377506    
     58000   58000          303.76122           7792   694161.96      694286.64      556614.16      33.6582        33.313         100            22.785991    
     59000   59000          302.37753           7792   694170.43      694372.34      556260.24      33.6582        33.313         100            23.089141    
     60000   60000          300.78527           7792   694544.8       694543.63      556375.66      33.6582        33.313         100            23.308659    
     61000   61000          306.87024           7792   693896.38      694451.37      556137.09      33.6582        33.313         100            23.557987    
     62000   62000          302.11975           7792   694158.93      693946.8       556541.95      33.6582        33.313         100            23.738706    
     63000   63000          297.12515           7792   694136.53      694049.32      556173.55      33.6582        33.313         100            23.938574    
     64000   64000          295.65688           7792   694250.11      693998.84      556061.77      33.6582        33.313         100            23.860494    
     65000   65000          303.61169           7792   693713.03      694372.96      556006.04      33.6582        33.313         100            23.58919     
     66000   66000          306.98546           7792   694061.38      694211.93      556936.27      33.6582        33.313         100            23.311315    
     67000   67000          302.06112           7792   694393.52      694360.87      556695.7       33.6582        33.313         100            23.023493    
     68000   68000          297.61451           7792   694673.85      694262.6       556177.21      33.6582        33.313         100            22.773795    
     69000   69000          296.65884           7792   694452.83      694464.17      556574.47      33.6582        33.313         100            22.40063     
     70000   70000          303.58048           7792   694370.33      694461.67      556047.15      33.6582        33.313         100            22.235059    
     71000   71000          298.1723            7792   694461.7       694392.42      556903.95      33.6582        33.313         100            21.987797    
     72000   72000          296.19143           7792   694510.05      694733.05      556483.98      33.6582        33.313         100            21.889353    
     73000   73000          300.62552           7792   694176.84      694464.93      556290.31      33.6582        33.313         100            22.012893    
     74000   74000          306.44311           7792   694468.21      694404.41      556359.4       33.6582        33.313         100            22.073526    
     75000   75000          302.8495            7792   694323.24      694344.64      557156.56      33.6582        33.313         100            22.026053    
     76000   76000          301.59391           7792   694167.14      694459.3       556903.05      33.6582        33.313         100            22.220265    
     77000   77000          294.2628            7792   694533.62      694548.97      556595.32      33.6582        33.313         100            22.514883    
     78000   78000          299.44594           7792   694158.93      694744.25      556487.37      33.6582        33.313         100            23.003933    
     79000   79000          300.7521            7792   693594.25      694553.46      556685.53      33.6582        33.313         100            23.2518      
     80000   80000          300.81996           7792   694360.61      693863.38      556492.8       33.6582        33.313         100            23.439376    
     81000   81000          303.87821           7792   693800.62      693815.1       556407.69      33.6582        33.313         100            23.620735    
     82000   82000          298.55285           7792   694054.78      694189.88      556566.24      33.6582        33.313         100            23.73057     
     83000   83000          303.0672            7792   694265.5       694282.83      556076.01      33.6582        33.313         100            23.628282    
     84000   84000          299.48476           7792   693986.72      693797.13      556268.3       33.6582        33.313         100            23.473505    
     85000   85000          302.00642           7792   694562.88      694090.58      556577.18      33.6582        33.313         100            23.290652    
     86000   86000          298.85606           7792   693972.6       694027.38      556363.49      33.6582        33.313         100            23.311166    
     87000   87000          298.52994           7792   694113.75      694412.08      556699.07      33.6582        33.313         100            23.136483    
     88000   88000          301.57388           7792   694764.75      694201.89      556435.61      33.6582        33.313         100            23.066533    
     89000   89000          297.59442           7792   694182.29      694282.07      556238.19      33.6582        33.313         100            22.893643    
     90000   90000          292.96611           7792   694039         694285.93      556939.19      33.6582        33.313         100            22.736898    
     91000   91000          298.24683           7792   694034.49      693935.71      556358.14      33.6582        33.313         100            22.659671    
     92000   92000          306.21684           7792   694135.57      694364.36      556292.1       33.6582        33.313         100            22.587114    
     93000   93000          299.46095           7792   694334.64      694781.73      556818         33.6582        33.313         100            22.442112    
     94000   94000          300.99656           7792   694291.04      694573.56      556590.36      33.6582        33.313         100            22.544617    
     95000   95000          302.67695           7792   694356.82      694126.7       556611.34      33.6582        33.313         100            22.559664    
     96000   96000          300.68008           7792   694569.22      694299.84      556674.33      33.6582        33.313         100            22.611277    
     97000   97000          301.33221           7792   693923.35      694496.93      555987.4       33.6582        33.313         100            22.701039    
     98000   98000          299.18492           7792   693990.08      694391.24      556290.76      33.6582        33.313         100            22.753999    
     99000   99000          298.64445           7792   694215.82      693917.41      556295.79      33.6582        33.313         100            22.835098    
    100000   100000         303.50136           7792   694405.69      694353.63      556670.47      33.6582        33.313         100            22.862747    
    101000   101000         298.18717           7792   694018.03      694128.81      556441.12      33.6582        33.313         100            22.751851    
    102000   102000         300.27128           7792   694321.7       694223.21      556380.52      33.6582        33.313         100            22.827391    
    103000   103000         304.19544           7792   694176.03      694966.82      556419.85      33.6582        33.313         100            22.87894     
    104000   104000         304.44656           7792   694299.62      694200.27      556630.49      33.6582        33.313         100            22.995355    
    105000   105000         301.21557           7792   694486.37      694347.17      556373.26      33.6582        33.313         100            23.142552    
    106000   106000         303.74883           7792   694321.3       694755.55      556103.37      33.6582        33.313         100            23.147384    
    107000   107000         296.06759           7792   694289.3       694328.04      556083.22      33.6582        33.313         100            23.094946    
    108000   108000         297.9844            7792   694483.16      694145.3       556368.6       33.6582        33.313         100            23.157448    
    109000   109000         299.58496           7792   694173.75      694302.47      556545.48      33.6582        33.313         100            23.228476    
    110000   110000         291.50892           7792   694245.97      694055.98      556574.5       33.6582        33.313         100            23.126392    
    111000   111000         300.42911           7792   694442.67      694531.07      556448.74      33.6582        33.313         100            22.886297    
    112000   112000         297.63961           7792   694533.25      694305.2       556654.31      33.6582        33.313         100            22.690942    
    113000   113000         306.28529           7792   694093.6       694230.77      557026.18      33.6582        33.313         100            22.588816    
    114000   114000         299.93847           7792   694869.42      694221.62      556968.21      33.6582        33.313         100            22.58657     
    115000   115000         301.63394           7792   694445.67      694675.53      556853.66      33.6582        33.313         100            22.551169    
    116000   116000         299.37879           7792   694473.92      694531.19      556314.7       33.6582        33.313         100            22.444834    
    117000   117000         302.42102           7792   694584.32      694398.32      556119.21      33.6582        33.313         100            22.327074    
    118000   118000         298.05693           7792   694434.19      694745.43      556298.28      33.6582        33.313         100            22.4221      
    119000   119000         296.4102            7792   693499.28      694625.82      556353.24      33.6582        33.313         100            22.651115    
    120000   120000         304.80596           7792   694241.8       694163.72      556833.45      33.6582        33.313         100            22.634609    
    121000   121000         308.52397           7792   694581.4       694420.06      556514.43      33.6582        33.313         100            22.700198    
    122000   122000         298.6809            7792   693858.83      693943.84      556682.45      33.6582        33.313         100            22.834136    
    123000   123000         300.72428           7792   694150.75      694227.27      556030.15      33.6582        33.313         100            23.000464    
    124000   124000         302.22151           7792   694150.28      694028.87      556635.73      33.6582        33.313         100            23.086703    
    125000   125000         304.13992           7792   694156.46      694366.36      556442.79      33.6582        33.313         100            23.02782     
    126000   126000         295.24498           7792   694137.31      694020.85      556318.89      33.6582        33.313         100            22.921912    
    127000   127000         300.95671           7792   694267.51      694388.5       556544.97      33.6582        33.313         100            22.906725    
    128000   128000         302.33157           7792   694056.47      694361.17      556683.63      33.6582        33.313         100            22.766157    
    129000   129000         303.34336           7792   694305.88      694177.38      556677.74      33.6582        33.313         100            22.550423    
    130000   130000         303.82064           7792   694163.81      694160.28      556683.37      33.6582        33.313         100            22.535206    
    131000   131000         296.84076           7792   694498.52      694499.88      556514.56      33.6582        33.313         100            22.533575    
    132000   132000         296.63223           7792   694600.21      694359.88      556312.99      33.6582        33.313         100            22.515507    
    133000   133000         298.42255           7792   694173.58      694347.23      556801.03      33.6582        33.313         100            22.54009     
    134000   134000         302.97436           7792   694299.59      694373.49      556433.94      33.6582        33.313         100            22.505111    
    135000   135000         307.70172           7792   694672.31      694035.6       556747.27      33.6582        33.313         100            22.478665    
    136000   136000         304.10757           7792   694300.28      694539.65      556255.07      33.6582        33.313         100            22.512005    
    137000   137000         299.80354           7792   694465.68      694389.22      556701.65      33.6582        33.313         100            22.821052    
    138000   138000         297.26599           7792   694133.98      693789.85      556023.21      33.6582        33.313         100            23.020153    
    139000   139000         298.2272            7792   693935.88      694307.23      556395.81      33.6582        33.313         100            23.117061    
    140000   140000         305.66841           7792   694313.89      694169.56      556809.83      33.6582        33.313         100            23.213237    
    141000   141000         295.55522           7792   693968.62      694223.59      556354.22      33.6582        33.313         100            23.238574    
    142000   142000         302.13827           7792   694576.55      693764.41      556373.6       33.6582        33.313         100            23.37552     
    143000   143000         297.26345           7792   694310.47      693949.56      556675.81      33.6582        33.313         100            23.255529    
    144000   144000         300.69373           7792   694238.87      694270.85      556496.89      33.6582        33.313         100            23.144054    
    145000   145000         299.59325           7792   694160.66      694014.33      556613.75      33.6582        33.313         100            23.366215    
    146000   146000         300.28485           7792   693976.35      693924.98      556310.11      33.6582        33.313         100            23.250815    
    147000   147000         302.8294            7792   694873.03      693667.6       556143.18      33.6582        33.313         100            23.240778    
    148000   148000         301.88931           7792   694239.73      694151.15      556015.67      33.6582        33.313         100            23.085211    
    149000   149000         297.9702            7792   694144.42      694178.54      556342.79      33.6582        33.313         100            23.003207    
    150000   150000         304.16551           7792   694287.11      694541.28      556257.71      33.6582        33.313         100            22.850261    
    151000   151000         298.67661           7792   694385.29      694282.51      556705.54      33.6582        33.313         100            22.634519    
    152000   152000         298.50182           7792   694540.46      694283.44      556653.44      33.6582        33.313         100            22.634634    
    153000   153000         306.4882            7792   694386.76      694357.85      556869.35      33.6582        33.313         100            22.592677    
    154000   154000         306.15392           7792   694370.29      694666.89      556405.91      33.6582        33.313         100            22.288233    
    155000   155000         302.83036           7792   694545.14      694478.54      556201.11      33.6582        33.313         100            22.389676    
    156000   156000         299.60986           7792   694351.59      694372.54      556746.85      33.6582        33.313         100            22.470289    
    157000   157000         296.89067           7792   694198.03      694205.56      556415.92      33.6582        33.313         100            22.472825    
    158000   158000         295.95957           7792   694332.61      694564.94      556655.01      33.6582        33.313         100            22.589723    
    159000   159000         302.32926           7792   694671.07      694271.38      556682.25      33.6582        33.313         100            22.732272    
    160000   160000         306.55277           7792   694282.72      694546.63      556957.95      33.6582        33.313         100            22.853621    
    161000   161000         302.80673           7792   694065.28      694369.84      556259.23      33.6582        33.313         100            22.995318    
    162000   162000         301.89043           7792   694099.19      694590.63      556349.05      33.6582        33.313         100            22.924504    
    163000   163000         295.85124           7792   694286.23      694031.23      556081.47      33.6582        33.313         100            23.070607    
    164000   164000         306.85504           7792   693949.26      693960.36      556334.1       33.6582        33.313         100            23.125126    
    165000   165000         300.8221            7792   694407.54      694282.51      556348.76      33.6582        33.313         100            23.026281    
    166000   166000         308.64541           7792   694125.57      694390.11      556352.78      33.6582        33.313         100            22.94511     
    167000   167000         304.3776            7792   694241.16      694205.27      556660.38      33.6582        33.313         100            22.768372    
    168000   168000         301.54634           7792   694567.34      694542.58      556743.77      33.6582        33.313         100            22.542705    
    169000   169000         294.0306            7792   694615.28      694892.61      556478.43      33.6582        33.313         100            22.594815    
    170000   170000         295.75101           7792   694732.03      694247.92      556343.83      33.6582        33.313         100            22.593508    
    171000   171000         297.48655           7792   694388.09      694758.05      556855.78      33.6582        33.313         100            22.437639    
    172000   172000         301.25243           7792   694498.87      694612.87      557151.73      33.6582        33.313         100            22.367614    
    173000   173000         303.07616           7792   694471.08      694603.62      556160.68      33.6582        33.313         100            22.615125    
    174000   174000         299.26131           7792   694415.98      694505.18      556331.43      33.6582        33.313         100            23.117911    
    175000   175000         293.37278           7792   694581.76      694120.69      556290.95      33.6582        33.313         100            23.415279    
    176000   176000         302.55177           7792   693973.66      694691.1       556225.33      33.6582        33.313         100            23.327524    
    177000   177000         296.87877           7792   694402.1       694340.68      556808.07      33.6582        33.313         100            23.306492    
    178000   178000         306.13252           7792   694402.88      694612.16      556445.04      33.6582        33.313         100            23.41624     
    179000   179000         299.84321           7792   694517.94      693813.73      556439.47      33.6582        33.313         100            23.533565    
    180000   180000         296.55353           7792   693781.23      693987.96      556517.11      33.6582        33.313         100            23.675485    
    181000   181000         301.19336           7792   694090.28      694126.25      556079.62      33.6582        33.313         100            23.581274    
    182000   182000         299.76385           7792   694071.09      694234.32      556241.31      33.6582        33.313         100            23.263213    
    183000   183000         304.01399           7792   694387.93      694746.24      556954.85      33.6582        33.313         100            22.972516    
    184000   184000         295.27596           7792   694403.66      694495.43      556717.25      33.6582        33.313         100            22.760544    
    185000   185000         300.11688           7792   694569.42      694308.76      556675.89      33.6582        33.313         100            22.593061    
    186000   186000         304.44812           7792   694863.48      694436.5       556520.27      33.6582        33.313         100            22.536679    
    187000   187000         301.03972           7792   694416.73      694197.59      556612.2       33.6582        33.313         100            22.388076    
    188000   188000         297.72738           7792   694277.18      694693.1       556776.88      33.6582        33.313         100            22.631899    
    189000   189000         298.68483           7792   694154.45      694487.13      556562.05      33.6582        33.313         100            22.870353    
    190000   190000         301.34602           7792   694488.03      693973.87      556573.45      33.6582        33.313         100            22.868495    
    191000   191000         306.4542            7792   694885.44      693944.04      556609.31      33.6582        33.313         100            22.866037    
    192000   192000         304.83419           7792   694071.37      694324.36      556407.31      33.6582        33.313         100            23.054839    
    193000   193000         304.12754           7792   694480.28      694141.95      556755.14      33.6582        33.313         100            23.166965    
    194000   194000         298.21851           7792   694193.14      694376.85      556318.32      33.6582        33.313         100            23.235926    
    195000   195000         297.1579            7792   693982.39      693882.05      556477.23      33.6582        33.313         100            23.486874    
    196000   196000         299.03865           7792   694098.94      693725.3       556111.6       33.6582        33.313         100            23.460658    
    197000   197000         299.12161           7792   694030.73      693974.85      556455.28      33.6582        33.313         100            23.293282    
    198000   198000         301.23605           7792   694591.52      694321.34      556557.26      33.6582        33.313         100            23.060712    
    199000   199000         298.65938           7792   694260.19      694454.91      556206.12      33.6582        33.313         100            23.037498    
    200000   200000         298.34951           7792   694477.68      694312.47      556457.06      33.6582        33.313         100            22.857939    
    201000   201000         298.43376           7792   694362.34      694398.09      556823.12      33.6582        33.313         100            22.857535    
    202000   202000         302.86774           7792   694630.03      694102.61      556536.8       33.6582        33.313         100            22.804023    
    203000   203000         295.71976           7792   694379.25      694324.44      556775.39      33.6582        33.313         100            22.70334     
    204000   204000         294.16353           7792   694400.13      694098.9       556273.42      33.6582        33.313         100            22.699607    
    205000   205000         300.18357           7792   694225.04      694758.6       556441.61      33.6582        33.313         100            22.573618    
    206000   206000         299.84078           7792   694432.04      694159.56      556505.29      33.6582        33.313         100            22.532562    
    207000   207000         301.36229           7792   694255.67      694232.22      556641.16      33.6582        33.313         100            22.777       
    208000   208000         302.53746           7792   694404.68      694168.78      556299.68      33.6582        33.313         100            22.859155    
    209000   209000         297.57393           7792   694152.33      694013.43      556164.58      33.6582        33.313         100            22.941072    
    210000   210000         300.78991           7792   694324.84      694487.37      556494.37      33.6582        33.313         100            23.055479    
    211000   211000         297.27585           7792   694577.93      694338.83      556251.66      33.6582        33.313         100            23.059296    
    212000   212000         297.28046           7792   694651.15      694379.43      556417.43      33.6582        33.313         100            23.081858    
    213000   213000         294.87744           7792   694541.22      694220.57      556475.04      33.6582        33.313         100            23.22835     
    214000   214000         303.33014           7792   693916.92      694046.35      556816.03      33.6582        33.313         100            23.139079    
    215000   215000         300.96733           7792   694773.98      693589.41      556019.03      33.6582        33.313         100            23.157479    
    216000   216000         293.93965           7792   693911.26      694315.59      556703.89      33.6582        33.313         100            23.182483    
    217000   217000         299.84403           7792   694791.95      693963.72      556645.72      33.6582        33.313         100            22.991945    
    218000   218000         299.10359           7792   694074.7       694352.49      556107.34      33.6582        33.313         100            22.865684    
    219000   219000         302.58874           7792   694340.73      694541.55      556543.77      33.6582        33.313         100            22.644709    
    220000   220000         301.98604           7792   694480.89      693987.11      556451.9       33.6582        33.313         100            22.709735    
    221000   221000         304.88236           7792   693965.86      694432.26      556565.48      33.6582        33.313         100            22.733853    
    222000   222000         297.54768           7792   694582.27      694262.56      556476.24      33.6582        33.313         100            22.738901    
    223000   223000         303.57041           7792   694140.92      694491.45      556665.18      33.6582        33.313         100            22.844721    
    224000   224000         301.00323           7792   693892.36      694288.8       556339.32      33.6582        33.313         100            23.029997    
    225000   225000         300.73888           7792   693865.74      694606.3       556228.99      33.6582        33.313         100            23.031268    
    226000   226000         294.10157           7792   694171.2       694257.35      556401.34      33.6582        33.313         100            22.955278    
    227000   227000         295.57257           7792   694942.1       694338.03      557157.6       33.6582        33.313         100            22.865699    
    228000   228000         301.5805            7792   694547.64      694378.5       556444.25      33.6582        33.313         100            23.071175    
    229000   229000         302.48889           7792   694266.24      694370.69      556366.72      33.6582        33.313         100            23.146968    
    230000   230000         305.17213           7792   694036.6       694069.72      556120.74      33.6582        33.313         100            23.112385    
    231000   231000         302.37097           7792   694073.1       694509.81      556247.55      33.6582        33.313         100            23.028762    
    232000   232000         300.43545           7792   694051.29      694184         556522.74      33.6582        33.313         100            22.891267    
    233000   233000         301.28198           7792   694316.59      694246.08      556412.83      33.6582        33.313         100            22.770908    
    234000   234000         303.53165           7792   694845.49      694509.45      556552.71      33.6582        33.313         100            22.681675    
    235000   235000         303.86711           7792   694792.81      694211.61      556524.02      33.6582        33.313         100            22.582622    
    236000   236000         305.28948           7792   694576.12      694281.52      556381.68      33.6582        33.313         100            22.567224    
    237000   237000         307.56097           7792   694528.22      694602.31      556523.39      33.6582        33.313         100            22.500348    
    238000   238000         300.86179           7792   694314.07      694284.93      556436.13      33.6582        33.313         100            22.522593    
    239000   239000         296.84376           7792   694175.02      694245.07      556412.72      33.6582        33.313         100            22.756605    
    240000   240000         296.38122           7792   694312.61      694299.25      556710.95      33.6582        33.313         100            23.087661    
    241000   241000         301.58986           7792   694641.92      694328.81      556661.16      33.6582        33.313         100            23.133952    
    242000   242000         299.93409           7792   693838.95      694297.6       556327.53      33.6582        33.313         100            23.255506    
    243000   243000         307.28736           7792   694061.21      694732.12      556648.58      33.6582        33.313         100            23.319869    
    244000   244000         302.89188           7792   693879.5       694018.02      556241.98      33.6582        33.313         100            23.289151    
    245000   245000         293.85477           7792   694254.81      694503.78      556520.79      33.6582        33.313         100            23.35203     
    246000   246000         301.50748           7792   694197.16      694037.49      556608.32      33.6582        33.313         100            23.295117    
    247000   247000         301.20169           7792   694177.17      693883.28      556129.74      33.6582        33.313         100            23.121551    
    248000   248000         299.65487           7792   694543.35      693999.11      556138.42      33.6582        33.313         100            22.974882    
    249000   249000         293.68285           7792   694457.08      694555.51      556676.76      33.6582        33.313         100            22.904222    
    250000   250000         295.93173           7792   694418.23      693970.73      556764.38      33.6582        33.313         100            22.824537    
    251000   251000         300.23301           7792   694212.67      694277.81      556361.83      33.6582        33.313         100            22.66999     
    252000   252000         300.03041           7792   694232.45      694503.81      556581.13      33.6582        33.313         100            22.612101    
    253000   253000         302.73039           7792   694095.3       694465.54      556177.01      33.6582        33.313         100            22.622066    
    254000   254000         304.41458           7792   694312.95      694275.79      556311.94      33.6582        33.313         100            22.667197    
    255000   255000         297.05174           7792   694367.42      694934.03      556872         33.6582        33.313         100            22.562414    
    256000   256000         300.06238           7792   694092.54      693964.86      556638.43      33.6582        33.313         100            22.717346    
    257000   257000         294.8806            7792   694319.62      694061.97      556100.74      33.6582        33.313         100            22.802193    
    258000   258000         301.50814           7792   694120.26      694016.98      556537.44      33.6582        33.313         100            22.736001    
    259000   259000         296.21876           7792   694452.66      694130.74      556649.88      33.6582        33.313         100            22.790984    
    260000   260000         299.78687           7792   694556.53      694353.13      556022.93      33.6582        33.313         100            22.76801     
    261000   261000         302.8666            7792   694538.34      694400.48      556588.03      33.6582        33.313         100            22.829017    
    262000   262000         299.75321           7792   694459.36      694524.51      556297.44      33.6582        33.313         100            22.945322    
    263000   263000         298.00567           7792   694660.74      694063.14      556264.77      33.6582        33.313         100            23.001653    
    264000   264000         301.97409           7792   694289.97      694545.02      556832.8       33.6582        33.313         100            22.94484     
    265000   265000         297.38886           7792   693618.89      694225.3       556554.71      33.6582        33.313         100            23.114732    
    266000   266000         296.55861           7792   694145.16      693949.21      556485.85      33.6582        33.313         100            23.26841     
    267000   267000         296.39402           7792   694963.29      694183.1       556478.98      33.6582        33.313         100            23.207469    
    268000   268000         300.11301           7792   694027.09      694652.69      556493.7       33.6582        33.313         100            23.206601    
    269000   269000         301.61835           7792   694311.39      694435.86      556557.35      33.6582        33.313         100            23.324465    
    270000   270000         298.47423           7792   694040.32      694180.12      556034.26      33.6582        33.313         100            23.294971    
    271000   271000         300.81349           7792   694289.89      693894.32      556195.97      33.6582        33.313         100            23.146065    
    272000   272000         301.65485           7792   694277.75      694300.69      556061.23      33.6582        33.313         100            23.022935    
    273000   273000         298.82558           7792   694282.87      694085.15      556436.99      33.6582        33.313         100            22.806008    
    274000   274000         294.01208           7792   694700.24      694212.68      556274.69      33.6582        33.313         100            22.702829    
    275000   275000         294.8446            7792   694584.42      694508.03      556168.73      33.6582        33.313         100            22.536801    
    276000   276000         297.10283           7792   694198.78      694445.09      556638.87      33.6582        33.313         100            22.450617    
    277000   277000         299.41336           7792   694567.12      694346.93      556651.54      33.6582        33.313         100            22.287317    
    278000   278000         300.617             7792   694567.07      694949         556547.79      33.6582        33.313         100            22.354688    
    279000   279000         301.26828           7792   694530.49      694525.98      556844.45      33.6582        33.313         100            22.258979    
    280000   280000         297.23576           7792   694457.19      694566.76      556542.56      33.6582        33.313         100            22.181054    
    281000   281000         295.79687           7792   694267.2       694019.81      556399.55      33.6582        33.313         100            22.371502    
    282000   282000         294.78923           7792   694593.5       694334.18      556452.26      33.6582        33.313         100            22.49593     
    283000   283000         297.55523           7792   694255.85      694140.73      557035.06      33.6582        33.313         100            22.600954    
    284000   284000         299.75551           7792   694521.33      694320.49      556502.85      33.6582        33.313         100            22.631991    
    285000   285000         298.6571            7792   694330.16      694352.15      556495.96      33.6582        33.313         100            22.834717    
    286000   286000         306.494             7792   694314.87      694612.71      556228.6       33.6582        33.313         100            22.858943    
    287000   287000         298.93359           7792   694629.77      694683.46      556397.59      33.6582        33.313         100            23.058358    
    288000   288000         298.98156           7792   694578.78      694275.58      555977.91      33.6582        33.313         100            23.053898    
    289000   289000         297.13105           7792   694432.31      694003.35      556435.29      33.6582        33.313         100            23.029676    
    290000   290000         300.83917           7792   694274.96      694191.29      556541.83      33.6582        33.313         100            23.071811    
    291000   291000         295.099             7792   694289.77      694235.4       556126.37      33.6582        33.313         100            23.258098    
    292000   292000         298.80634           7792   694311.79      694516.98      556706.54      33.6582        33.313         100            23.071678    
    293000   293000         302.73034           7792   694474.63      694358.65      556567.56      33.6582        33.313         100            22.958736    
    294000   294000         297.93943           7792   694281.98      694257.15      556532.45      33.6582        33.313         100            23.08824     
    295000   295000         303.16292           7792   694008.29      694263.04      556215.3       33.6582        33.313         100            22.944081    
    296000   296000         304.15234           7792   694470.63      694625.61      556290.41      33.6582        33.313         100            22.873895    
    297000   297000         296.5799            7792   694397.13      694304.91      556463.12      33.6582        33.313         100            22.750974    
    298000   298000         298.17445           7792   693908.18      693915.48      556669.13      33.6582        33.313         100            22.643333    
    299000   299000         296.45073           7792   694814.95      694601         556189.95      33.6582        33.313         100            22.525653    
    300000   300000         301.004             7792   694559.92      694769.56      556969.07      33.6582        33.313         100            22.487687    
    301000   301000         302.35777           7792   694792.66      694300.57      556383.01      33.6582        33.313         100            22.656298    
    302000   302000         299.3833            7792   694418.08      694183.11      556407.95      33.6582        33.313         100            22.75765     
    303000   303000         304.53791           7792   694530.07      694163.07      556425.5       33.6582        33.313         100            22.835304    
    304000   304000         306.51158           7792   694878.62      694620.82      556614.59      33.6582        33.313         100            22.88294     
    305000   305000         308.60371           7792   694355.39      694399.28      556582.45      33.6582        33.313         100            22.962891    
    306000   306000         301.48319           7792   694398.98      694048.89      556673.32      33.6582        33.313         100            23.119225    
    307000   307000         300.91417           7792   693858.61      694012.61      556461.87      33.6582        33.313         100            23.445989    
    308000   308000         291.76524           7792   694125.2       694307.46      556242.01      33.6582        33.313         100            23.524269    
    309000   309000         303.61146           7792   694606.91      693577.58      556375.08      33.6582        33.313         100            23.517521    
    310000   310000         302.67783           7792   694500.05      694253.63      556686.31      33.6582        33.313         100            23.409175    
    311000   311000         304.22768           7792   694406.68      694473.51      556241.95      33.6582        33.313         100            23.201299    
    312000   312000         300.79681           7792   694551.42      693999.24      555913.46      33.6582        33.313         100            23.026996    
    313000   313000         305.17909           7792   694604.55      694621.2       556860.59      33.6582        33.313         100            22.912719    
    314000   314000         292.72467           7792   694360.22      694740.31      556152.74      33.6582        33.313         100            22.86601     
    315000   315000         297.62725           7792   694276.84      694276.65      556583.82      33.6582        33.313         100            22.890235    
    316000   316000         298.97129           7792   694181.33      694005.06      556578.19      33.6582        33.313         100            22.787281    
    317000   317000         304.76524           7792   694275.66      693987.19      556617.86      33.6582        33.313         100            22.804828    
    318000   318000         304.61513           7792   694204.3       694487.75      556658.91      33.6582        33.313         100            22.893522    
    319000   319000         301.74921           7792   694156.5       694106.71      556525.61      33.6582        33.313         100            23.042641    
    320000   320000         302.01085           7792   694248.94      693964.09      556302.77      33.6582        33.313         100            22.998083    
    321000   321000         296.11983           7792   694916.28      694639         556547.39      33.6582        33.313         100            22.822164    
    322000   322000         293.45899           7792   694119.93      694176         557276.06      33.6582        33.313         100            22.868823    
    323000   323000         304.63536           7792   694877.37      694047.64      556522.43      33.6582        33.313         100            23.101051    
    324000   324000         304.65819           7792   694056.92      694370.67      556587.1       33.6582        33.313         100            23.180293    
    325000   325000         304.45536           7792   694210.88      694102.09      556353.02      33.6582        33.313         100            23.358669    
    326000   326000         296.8355            7792   694199.63      694004.54      556187.44      33.6582        33.313         100            23.375525    
    327000   327000         302.4284            7792   694356         694485.88      556616.04      33.6582        33.313         100            23.342928    
    328000   328000         301.81965           7792   694184.94      694220.05      556331.22      33.6582        33.313         100            23.320245    
    329000   329000         301.26849           7792   694259.09      694157.99      556376.76      33.6582        33.313         100            23.203635    
    330000   330000         297.60396           7792   694483.39      694306.03      556368.79      33.6582        33.313         100            23.00589     
    331000   331000         299.68338           7792   693954.76      694106.24      556539.69      33.6582        33.313         100            23.040765    
    332000   332000         302.19074           7792   694321.74      694244.16      556359.09      33.6582        33.313         100            23.032013    
    333000   333000         299.96004           7792   693993.78      694501.98      556664.08      33.6582        33.313         100            22.813447    
    334000   334000         305.01857           7792   694188.96      694167.75      556920.83      33.6582        33.313         100            22.545151    
    335000   335000         300.0461            7792   694313.88      694948.18      556760.03      33.6582        33.313         100            22.450022    
    336000   336000         293.04399           7792   694375.47      694300.75      556321.28      33.6582        33.313         100            22.416936    
    337000   337000         299.03202           7792   694104.23      694276.84      556548.54      33.6582        33.313         100            22.516011    
    338000   338000         300.67902           7792   694666.42      694728.57      556597.69      33.6582        33.313         100            22.496496    
    339000   339000         303.14966           7792   694632.57      694532.9       556762.85      33.6582        33.313         100            22.616185    
    340000   340000         307.80639           7792   694622.51      693975.4       556159.15      33.6582        33.313         100            22.702698    
    341000   341000         308.1538            7792   694375.96      694165.18      556624.39      33.6582        33.313         100            22.725734    
    342000   342000         308.32635           7792   694183.89      694035.6       556334.46      33.6582        33.313         100            22.843115    
    343000   343000         303.21142           7792   693996.2       694009.18      556104.08      33.6582        33.313         100            22.85243     
    344000   344000         297.63141           7792   694366.53      694404.64      556698.56      33.6582        33.313         100            22.822866    
    345000   345000         294.53757           7792   694073.58      694066.39      556639.82      33.6582        33.313         100            22.741583    
    346000   346000         304.24089           7792   694333.6       694072.7       556562.07      33.6582        33.313         100            22.681942    
    347000   347000         301.63504           7792   694609.12      694428.87      556354.05      33.6582        33.313         100            22.700139    
    348000   348000         303.26581           7792   694588.24      694641.89      556354.1       33.6582        33.313         100            22.699506    
    349000   349000         308.78888           7792   694922.99      693652         556603.35      33.6582        33.313         100            22.60528     
    350000   350000         296.28211           7792   694839.63      694826.92      556631.46      33.6582        33.313         100            22.620568    
    351000   351000         300.59719           7792   694553.95      694621.68      556750.98      33.6582        33.313         100            22.622461    
    352000   352000         298.40994           7792   694469.39      694567.71      556386.47      33.6582        33.313         100            22.759556    
    353000   353000         296.75623           7792   694053.6       694067.67      556453.16      33.6582        33.313         100            22.961747    
    354000   354000         300.90144           7792   694123.54      694448.92      556506.08      33.6582        33.313         100            23.106473    
    355000   355000         304.33447           7792   694352.34      694001.8       556717.24      33.6582        33.313         100            23.046237    
    356000   356000         304.3794            7792   694169.51      694574.49      556286.06      33.6582        33.313         100            23.064908    
    357000   357000         298.4282            7792   694500.95      694255.18      556514.22      33.6582        33.313         100            23.023147    
    358000   358000         298.71009           7792   694286.98      694402.11      556816.47      33.6582        33.313         100            22.919988    
    359000   359000         299.35179           7792   693749.9       694321.3       556475.45      33.6582        33.313         100            22.840405    
    360000   360000         295.51644           7792   694552.71      694206.9       556159.98      33.6582        33.313         100            22.687977    
    361000   361000         295.69153           7792   694567.63      694620.24      556289.2       33.6582        33.313         100            22.595864    
    362000   362000         302.67491           7792   694024.68      695011.75      556652.29      33.6582        33.313         100            22.585708    
    363000   363000         305.36335           7792   694144.83      694299.31      556499.75      33.6582        33.313         100            22.741861    
    364000   364000         299.96378           7792   694472.96      694805.03      556623.19      33.6582        33.313         100            22.899694    
    365000   365000         299.63572           7792   694280.76      694369.94      556539.4       33.6582        33.313         100            22.709589    
    366000   366000         305.54909           7792   694450.3       694386.83      556852.46      33.6582        33.313         100            22.708677    
    367000   367000         297.50331           7792   694199.81      694448.68      556126.95      33.6582        33.313         100            22.764772    
    368000   368000         296.42325           7792   694163.74      694134.77      556658.17      33.6582        33.313         100            22.965813    
    369000   369000         293.15969           7792   694383.91      694282.85      555668.92      33.6582        33.313         100            23.053714    
    370000   370000         297.59174           7792   694733.62      694403.2       556363.78      33.6582        33.313         100            23.184557    
    371000   371000         301.12853           7792   694002.62      694109.56      556529.03      33.6582        33.313         100            23.244767    
    372000   372000         304.9149            7792   694444.7       694000.74      556246.72      33.6582        33.313         100            23.223678    
    373000   373000         302.21567           7792   694298.06      694589.42      556546.33      33.6582        33.313         100            23.148726    
    374000   374000         299.39602           7792   694160.47      694060.81      556505.22      33.6582        33.313         100            22.969522    
    375000   375000         306.08703           7792   694594.1       694054.69      556662.45      33.6582        33.313         100            23.058428    
    376000   376000         301.41278           7792   693710.54      694276.09      556459.44      33.6582        33.313         100            23.013948    
    377000   377000         302.59057           7792   695093.71      694212.87      556528.39      33.6582        33.313         100            22.874907    
    378000   378000         298.19628           7792   694051.16      693982.41      556429.73      33.6582        33.313         100            22.908504    
    379000   379000         297.9713            7792   694737.4       694580.63      556378.95      33.6582        33.313         100            22.697252    
    380000   380000         298.4074            7792   694113.94      694233.83      556368.92      33.6582        33.313         100            22.488732    
    381000   381000         300.55806           7792   694690.71      693911.16      556586.61      33.6582        33.313         100            22.472098    
    382000   382000         298.81174           7792   694594.36      693984.12      556819.7       33.6582        33.313         100            22.334452    
    383000   383000         298.20809           7792   694156.74      694482.16      556588.99      33.6582        33.313         100            22.236254    
    384000   384000         303.21302           7792   694389.98      694261.83      556365.86      33.6582        33.313         100            22.250746    
    385000   385000         303.18827           7792   694190.9       694201.71      556478.58      33.6582        33.313         100            22.336279    
    386000   386000         300.94764           7792   694593.96      694259.47      556360.44      33.6582        33.313         100            22.399432    
    387000   387000         298.12464           7792   694704.65      694383.2       556576.37      33.6582        33.313         100            22.430237    
    388000   388000         296.15024           7792   694301.87      694600.18      556359.06      33.6582        33.313         100            22.570457    
    389000   389000         298.01071           7792   694411.18      693844.39      556279.66      33.6582        33.313         100            22.712447    
    390000   390000         297.73771           7792   694436.63      694471.49      556520.51      33.6582        33.313         100            22.888609    
    391000   391000         303.7212            7792   694122.43      694097.37      556085.75      33.6582        33.313         100            22.829368    
    392000   392000         294.72351           7792   694421.89      694333.34      556525.72      33.6582        33.313         100            22.910319    
    393000   393000         301.65272           7792   694264.42      694342.35      556448.63      33.6582        33.313         100            23.186259    
    394000   394000         302.7321            7792   694548.92      694316.04      556548.71      33.6582        33.313         100            23.300112    
    395000   395000         298.25006           7792   694102.89      694742.92      556543.8       33.6582        33.313         100            23.321387    
    396000   396000         301.90156           7792   693885.13      694281.04      556583.83      33.6582        33.313         100            23.481518    
    397000   397000         301.08305           7792   694346.13      694021.4       556361.77      33.6582        33.313         100            23.494756    
    398000   398000         302.42585           7792   693942.05      693625.36      556059.08      33.6582        33.313         100            23.339094    
    399000   399000         292.76886           7792   694620.83      694036.25      556430.8       33.6582        33.313         100            23.24079     
    400000   400000         298.78383           7792   694548.16      694195.3       556011.51      33.6582        33.313         100            23.156113    
    401000   401000         300.98605           7792   694003.98      694175.25      556315.43      33.6582        33.313         100            22.972062    
    402000   402000         297.19626           7792   694335.63      694645.92      556485.14      33.6582        33.313         100            22.755728    
    403000   403000         298.95456           7792   694476.07      694327.84      556772.11      33.6582        33.313         100            22.426698    
    404000   404000         304.40588           7792   694306.05      694370.39      556986.87      33.6582        33.313         100            22.404689    
    405000   405000         300.85929           7792   694909.65      694497.85      556831.15      33.6582        33.313         100            22.384926    
    406000   406000         301.71094           7792   694242.6       694428.55      556678.05      33.6582        33.313         100            22.244659    
    407000   407000         298.54124           7792   694462.61      694431.27      556475.12      33.6582        33.313         100            22.181601    
    408000   408000         299.06701           7792   694224.66      694181.78      556247.78      33.6582        33.313         100            22.412221    
    409000   409000         299.36595           7792   694784.98      694284.53      556756.84      33.6582        33.313         100            22.658699    
    410000   410000         292.82802           7792   694398.9       694410.78      556453.77      33.6582        33.313         100            22.823411    
    411000   411000         293.00968           7792   694334         694077.65      556315.59      33.6582        33.313         100            22.944242    
    412000   412000         298.499             7792   693946.62      694642.32      556222.4       33.6582        33.313         100            23.117501    
    413000   413000         298.51813           7792   694255.39      694378.12      556588.4       33.6582        33.313         100            23.26126     
    414000   414000         300.40788           7792   694274.19      693651.05      556109.53      33.6582        33.313         100            23.355096    
    415000   415000         298.43616           7792   694489.94      694264.17      556606.36      33.6582        33.313         100            23.236089    
    416000   416000         304.47814           7792   694358.6       694242.42      556651.87      33.6582        33.313         100            23.189666    
    417000   417000         303.63283           7792   694438.74      694663.76      556369.5       33.6582        33.313         100            23.268047    
    418000   418000         302.82114           7792   694141.56      693986.8       556624.61      33.6582        33.313         100            23.190639    
    419000   419000         298.2586            7792   694183.99      693681.35      556179.02      33.6582        33.313         100            23.373206    
    420000   420000         296.77595           7792   694281.71      694233.07      556305.72      33.6582        33.313         100            23.394355    
    421000   421000         288.17429           7792   694420.42      694328.41      556366         33.6582        33.313         100            23.439069    
    422000   422000         296.59481           7792   693944.97      694354.65      556658.4       33.6582        33.313         100            23.39385     
    423000   423000         297.7261            7792   694647.11      694161.82      556483.73      33.6582        33.313         100            23.271102    
    424000   424000         303.86445           7792   694208.41      694236.7       556366.1       33.6582        33.313         100            23.2406      
    425000   425000         299.39432           7792   694255.08      694243.03      556393.02      33.6582        33.313         100            23.308893    
    426000   426000         300.75634           7792   693943.91      694501.06      556728.63      33.6582        33.313         100            23.250344    
    427000   427000         297.39611           7792   694524.07      694383.92      556628.86      33.6582        33.313         100            23.110223    
    428000   428000         299.16671           7792   694463.72      694177.25      556123.31      33.6582        33.313         100            23.111603    
    429000   429000         302.32922           7792   693979.99      694070.4       556183.07      33.6582        33.313         100            22.916152    
    430000   430000         299.62239           7792   694288.56      694135.84      556496.87      33.6582        33.313         100            22.974402    
    431000   431000         296.09144           7792   693968.86      694278.26      556389.3       33.6582        33.313         100            23.013613    
    432000   432000         296.77836           7792   694233.17      694470.37      556587.95      33.6582        33.313         100            22.900336    
    433000   433000         303.85195           7792   693833.69      694330.86      556582.91      33.6582        33.313         100            22.901129    
    434000   434000         299.78315           7792   694101.45      694506.72      556283.77      33.6582        33.313         100            23.056124    
    435000   435000         298.79372           7792   694071.23      694373.81      556434.72      33.6582        33.313         100            23.108918    
    436000   436000         299.03872           7792   694348.97      694765.18      556529.13      33.6582        33.313         100            22.996599    
    437000   437000         305.55306           7792   694298.97      694102.53      556034.91      33.6582        33.313         100            23.011665    
[...]
    884000   884000         295.49065           7792   694343.88      693829.44      556115.35      33.6582        33.313         100            23.197236    
    885000   885000         301.29881           7792   694208.82      694732.64      556388.71      33.6582        33.313         100            22.962       
    886000   886000         299.2306            7792   694457.64      694661.17      556901.55      33.6582        33.313         100            22.788085    
    887000   887000         304.41413           7792   694130.33      694294.18      556696.86      33.6582        33.313         100            22.703065    
    888000   888000         304.65683           7792   694703.86      694410.34      556888.31      33.6582        33.313         100            22.636803    
    889000   889000         302.19123           7792   694591.59      694088.1       556384.93      33.6582        33.313         100            22.492481    
    890000   890000         292.14324           7792   694711.64      694845.66      556720.5       33.6582        33.313         100            22.608139    
    891000   891000         293.27427           7792   694353.07      694133.86      556347.48      33.6582        33.313         100            22.783142    
    892000   892000         298.60704           7792   694300.91      694296.63      556331.16      33.6582        33.313         100            22.959059    
    893000   893000         302.46926           7792   694317.17      694395.48      556571.47      33.6582        33.313         100            23.07186     
    894000   894000         302.87746           7792   694684.28      694229.19      556344.89      33.6582        33.313         100            23.085695    
    895000   895000         298.77353           7792   694390.6       694237.06      556067.81      33.6582        33.313         100            23.230189    
    896000   896000         297.58331           7792   693773.29      694163.69      556478.82      33.6582        33.313         100            23.20748     
    897000   897000         298.482             7792   694473         694074.56      556681.33      33.6582        33.313         100            23.238242    
    898000   898000         297.93079           7792   694229.86      694130.76      556647.16      33.6582        33.313         100            23.372745    
    899000   899000         303.08833           7792   694137.27      694174.08      556103.35      33.6582        33.313         100            23.2998      
    900000   900000         307.83614           7792   694681.06      694288.41      556561.87      33.6582        33.313         100            23.120223    
    901000   901000         300.1333            7792   694096.82      694386.77      556718.23      33.6582        33.313         100            23.000126    
    902000   902000         296.08618           7792   694413.26      694252.74      555812.57      33.6582        33.313         100            23.049899    
    903000   903000         299.34531           7792   694293.04      694314.33      556071.12      33.6582        33.313         100            22.99111     
    904000   904000         296.96802           7792   694320.68      694507.05      556388.13      33.6582        33.313         100            22.778056    
    905000   905000         299.0373            7792   694205.7       694234.95      556819.64      33.6582        33.313         100            22.542642    
    906000   906000         299.05775           7792   694194.03      693993.4       556601.94      33.6582        33.313         100            22.468001    
    907000   907000         301.28247           7792   694706.55      694714.11      556612.24      33.6582        33.313         100            22.413703    
    908000   908000         293.44708           7792   694316.93      694491.7       556050.64      33.6582        33.313         100            22.553129    
    909000   909000         298.66362           7792   693739.99      694394.7       556402.18      33.6582        33.313         100            22.626163    
    910000   910000         301.85328           7792   694376.13      694558.14      556477.09      33.6582        33.313         100            22.742631    
    911000   911000         302.72211           7792   694242.93      694222.16      555981.23      33.6582        33.313         100            22.653657    
    912000   912000         304.31764           7792   694620.57      694577.67      556274.14      33.6582        33.313         100            22.735742    
    913000   913000         299.1592            7792   694381.44      694459.36      556705.59      33.6582        33.313         100            22.627497    
    914000   914000         298.44132           7792   694464.66      694316.17      556723.65      33.6582        33.313         100            22.692807    
    915000   915000         297.5243            7792   694344.16      694458.98      556508.96      33.6582        33.313         100            22.81219     
    916000   916000         300.89327           7792   694402.71      694519.2       556274.55      33.6582        33.313         100            22.868075    
    917000   917000         301.6986            7792   693931.51      693786.39      556337.36      33.6582        33.313         100            23.011436    
    918000   918000         298.78754           7792   694300.66      694532.7       556598.53      33.6582        33.313         100            22.985166    
    919000   919000         304.95981           7792   694311.79      694258.07      556638.32      33.6582        33.313         100            22.930788    
    920000   920000         308.12677           7792   694235.64      694397.77      556575.96      33.6582        33.313         100            22.857072    
    921000   921000         293.16588           7792   694180.97      694612.81      556630.97      33.6582        33.313         100            22.95436     
    922000   922000         297.07463           7792   694446.84      694568.5       556849.94      33.6582        33.313         100            22.887466    
    923000   923000         296.12272           7792   694687.42      694742.51      556436.4       33.6582        33.313         100            22.834482    
    924000   924000         304.4886            7792   694687.76      694206.37      556428.78      33.6582        33.313         100            22.811073    
    925000   925000         298.91786           7792   694994.13      694349.02      556682.59      33.6582        33.313         100            22.891229    
    926000   926000         302.54453           7792   693994.43      694467.09      556863.79      33.6582        33.313         100            22.80032     
    927000   927000         302.52153           7792   694441.29      694098.3       556247.16      33.6582        33.313         100            22.876848    
    928000   928000         296.46641           7792   694627.04      694437.55      556218.94      33.6582        33.313         100            22.879408    
    929000   929000         295.04884           7792   694300.13      694020.23      556121.61      33.6582        33.313         100            22.820733    
    930000   930000         290.54873           7792   694624.32      694238.29      556444.53      33.6582        33.313         100            22.838007    
    931000   931000         301.29191           7792   694422.45      694691.3       556611.81      33.6582        33.313         100            22.813003    
    932000   932000         297.6855            7792   693998.5       694459.55      556328.17      33.6582        33.313         100            22.86014     
    933000   933000         301.48251           7792   694382.64      694416.52      556287.47      33.6582        33.313         100            22.95667     
    934000   934000         302.18957           7792   693871.41      694321.1       556272.43      33.6582        33.313         100            23.045581    
    935000   935000         301.21236           7792   694450.34      694724.31      556465.87      33.6582        33.313         100            23.225163    
    936000   936000         300.36666           7792   694070.84      694058.14      556286.44      33.6582        33.313         100            23.249325    
    937000   937000         296.88982           7792   694247.11      694383.37      556057.04      33.6582        33.313         100            23.151549    
    938000   938000         295.46676           7792   694288.23      693994.11      556518.97      33.6582        33.313         100            22.977121    
    939000   939000         294.64338           7792   694365.68      694513.15      556609.03      33.6582        33.313         100            22.690319    
    940000   940000         297.56667           7792   694454.23      694600.49      556792.29      33.6582        33.313         100            22.44753     
    941000   941000         304.27041           7792   694446.83      694647.38      556766.19      33.6582        33.313         100            22.464241    
    942000   942000         303.76195           7792   694168.55      694182.09      556324.49      33.6582        33.313         100            22.483353    
    943000   943000         299.99479           7792   694527.38      694679.43      556733.71      33.6582        33.313         100            22.343027    
    944000   944000         295.3775            7792   694195.24      694540.1       556640.62      33.6582        33.313         100            22.330356    
    945000   945000         295.51058           7792   694163.85      694320.14      556986.2       33.6582        33.313         100            22.413351    
    946000   946000         297.97972           7792   694198.3       694609.82      556575.51      33.6582        33.313         100            22.482753    
    947000   947000         304.49723           7792   693975.27      694573.16      556666.45      33.6582        33.313         100            22.606847    
    948000   948000         301.5234            7792   693981.39      693985.78      555949.97      33.6582        33.313         100            22.741554    
    949000   949000         299.51897           7792   694309.73      694374.58      556495.1       33.6582        33.313         100            22.994795    
    950000   950000         299.92177           7792   694073.39      694220.59      556369.33      33.6582        33.313         100            23.187047    
    951000   951000         298.79368           7792   694042.39      694523.32      556078.54      33.6582        33.313         100            23.219738    
    952000   952000         304.47585           7792   694229.86      694228.34      556597.26      33.6582        33.313         100            23.238623    
    953000   953000         300.08758           7792   694785.71      694050.54      556178.5       33.6582        33.313         100            23.234736    
    954000   954000         301.66171           7792   694300.77      694059.99      556211.66      33.6582        33.313         100            23.169359    
    955000   955000         300.85969           7792   693917.68      694486.51      556257.2       33.6582        33.313         100            22.91984     
    956000   956000         297.96621           7792   694594.7       694490.55      556701.56      33.6582        33.313         100            22.883272    
    957000   957000         295.77906           7792   694727.71      694515.63      556924.16      33.6582        33.313         100            22.971639    
    958000   958000         295.82576           7792   694489.17      694627.3       556295.74      33.6582        33.313         100            23.099639    
    959000   959000         302.97757           7792   694493.52      694596.69      556491.43      33.6582        33.313         100            23.149231    
    960000   960000         298.98336           7792   694091.98      694494.51      556137.93      33.6582        33.313         100            22.96071     
    961000   961000         299.91133           7792   694624.8       694873.56      556223.81      33.6582        33.313         100            22.930953    
    962000   962000         297.81898           7792   694290.66      694345.48      556431.1       33.6582        33.313         100            22.830766    
    963000   963000         299.37371           7792   694612.88      694386.01      556626.92      33.6582        33.313         100            22.90936     
    964000   964000         296.14837           7792   694447.91      694282.84      556227.27      33.6582        33.313         100            22.797769    
    965000   965000         299.12619           7792   694459.5       694556.07      556391.8       33.6582        33.313         100            22.773694    
    966000   966000         300.504             7792   694048.51      694222.9       556181.26      33.6582        33.313         100            22.912133    
    967000   967000         298.44999           7792   694674.61      694767.37      556898.44      33.6582        33.313         100            23.075979    
    968000   968000         300.50324           7792   694028.56      694028.71      556619.06      33.6582        33.313         100            23.055519    
    969000   969000         297.92578           7792   693504.22      694491.53      556326.78      33.6582        33.313         100            23.04989     
    970000   970000         305.66314           7792   694175.99      694485.87      556721.71      33.6582        33.313         100            23.096769    
    971000   971000         296.93252           7792   694510.67      694510.87      556642.76      33.6582        33.313         100            23.06823     
    972000   972000         294.2677            7792   694325.36      694339.35      556717.72      33.6582        33.313         100            23.217088    
    973000   973000         299.97509           7792   694434.92      694330.75      556009.03      33.6582        33.313         100            23.466206    
    974000   974000         297.70805           7792   694477.72      693997.11      556753.76      33.6582        33.313         100            23.452885    
    975000   975000         308.48185           7792   694439.73      694100.72      556797.64      33.6582        33.313         100            23.217335    
    976000   976000         305.25105           7792   693868.29      694530.24      556416.38      33.6582        33.313         100            23.077893    
    977000   977000         299.30752           7792   693908.44      694316.69      556334.45      33.6582        33.313         100            22.942644    
    978000   978000         296.12625           7792   694357.85      693982.95      556332.96      33.6582        33.313         100            22.812679    
    979000   979000         302.0729            7792   694485.72      694617.97      556420.69      33.6582        33.313         100            22.803572    
    980000   980000         307.81243           7792   694232.97      694517.69      556246.86      33.6582        33.313         100            22.679768    
    981000   981000         299.47881           7792   694720.49      694810.28      556678.32      33.6582        33.313         100            22.5491      
    982000   982000         294.26473           7792   694155.33      694485.44      556498.99      33.6582        33.313         100            22.658339    
    983000   983000         298.82012           7792   694575.53      694281.75      556797.03      33.6582        33.313         100            22.568331    
    984000   984000         299.03569           7792   694677.95      694719.35      556641.41      33.6582        33.313         100            22.622541    
    985000   985000         297.20156           7792   694695.38      694303.68      556805.51      33.6582        33.313         100            22.592201    
    986000   986000         295.89704           7792   694371.39      694524.79      556642.41      33.6582        33.313         100            22.865459    
    987000   987000         304.90181           7792   694233.59      694318.49      556407.39      33.6582        33.313         100            23.262718    
    988000   988000         305.75976           7792   694080.48      693937.23      556368.89      33.6582        33.313         100            23.461813    
    989000   989000         295.91771           7792   694159.15      694442.13      556236.23      33.6582        33.313         100            23.633221    
    990000   990000         295.60852           7792   694241.97      693792.69      556439.94      33.6582        33.313         100            23.526933    
    991000   991000         302.58401           7792   694225.82      694121.83      556743.38      33.6582        33.313         100            23.46984     
    992000   992000         297.93598           7792   694479.87      694462.13      556357.21      33.6582        33.313         100            23.324047    
    993000   993000         303.19754           7792   694670.68      694158.16      556554.17      33.6582        33.313         100            23.116719    
    994000   994000         297.69553           7792   694236.11      694000.65      556780.41      33.6582        33.313         100            23.00622     
    995000   995000         299.11921           7792   694730.95      694420.69      556562.65      33.6582        33.313         100            22.910448    
    996000   996000         296.0623            7792   694382.77      694182.3       556279.27      33.6582        33.313         100            22.908876    
    997000   997000         300.84745           7792   694502.36      694507.38      556970.38      33.6582        33.313         100            22.874491    
    998000   998000         296.98898           7792   694180.79      694565.47      556556.49      33.6582        33.313         100            22.775803    
    999000   999000         308.14286           7792   694269.76      694206.71      556809.7       33.6582        33.313         100            22.785189    
   1000000   1000000        301.28538           7792   694792.37      694675.96      556639.79      33.6582        33.313         100            22.819184    
Loop time of 48372 on 8 procs for 1000000 steps with 7792 atoms

Performance: 1.786 ns/day, 13.437 hours/ns, 20.673 timesteps/s, 161.085 katom-step/s
17.2% CPU use with 8 MPI tasks x no OpenMP threads

MPI task timing breakdown:
Section |  min time  |  avg time  |  max time  |%varavg| %total
---------------------------------------------------------------
Pair    | 976.43     | 20900      | 32446      |8133.1 | 43.21
Bond    | 0.27531    | 241.86     | 1876.4     |3972.7 |  0.50
Kspace  | 11409      | 21698      | 42065      |7968.5 | 44.86
Neigh   | 3049.5     | 3050.6     | 3051.8     |   1.8 |  6.31
Comm    | 196.77     | 1101.6     | 2098.4     |2367.2 |  2.28
Output  | 0.098248   | 0.13598    | 0.21362    |  11.3 |  0.00
Modify  | 640.76     | 1018.8     | 1240.2     | 892.5 |  2.11
Other   |            | 360.6      |            |       |  0.75

Nlocal:            974 ave        1427 max         112 min
Histogram: 2 0 0 0 0 0 2 0 0 4
Nghost:        6953.62 ave        9796 max        4311 min
Histogram: 2 0 0 2 0 0 2 0 0 2
Neighs:         322691 ave      528263 max        4665 min
Histogram: 2 0 0 0 0 0 2 2 0 2

Total # of neighbors = 2581526
Ave neighs/atom = 331.30467
Ave special neighs/atom = 1.5400411
Neighbor list builds = 49760
Dangerous builds = 0
Total wall time: 13:26:27
