LAMMPS data file via write_data, version 4 Jul 2026, timestep = 0, units = real

7792 atoms
3 atom types
4000 bonds
1 bond types
2000 angles
1 angle types

-16.8291 16.8291 xlo xhi
-16.6565 16.6565 ylo yhi
-50 50 zlo zhi

Masses

1 12.011
2 1.008
3 15.999

Pair Coeffs # lj/cut/coul/long

1 0.105 3.43085
2 0 1
3 0.1553 3.166

Bond Coeffs # harmonic

1 517.63 1

Angle Coeffs # harmonic

1 37.9505 109.47

Atoms # full

897 2 1 0 -16.2281 -16.136016 -42.9445 0 0 0
898 2 1 0 -13.8239 -16.136016 -42.9445 0 0 0
899 2 1 0 -11.4198 -16.136016 -42.9445 0 0 0
900 2 1 0 -9.0156 -16.136016 -42.9445 0 0 0
911 2 1 0 -15.026 -14.053916 -42.9445 0 0 0
912 2 1 0 -12.6219 -14.053916 -42.9445 0 0 0
913 2 1 0 -10.2177 -14.053916 -42.9445 0 0 0
925 2 1 0 -16.2281 -11.971916 -42.9445 0 0 0
926 2 1 0 -13.8239 -11.971916 -42.9445 0 0 0
927 2 1 0 -11.4198 -11.971916 -42.9445 0 0 0
928 2 1 0 -9.0156 -11.971916 -42.9445 0 0 0
1121 2 1 0 -15.026 -15.442016 -40.9815 0 0 0
1122 2 1 0 -12.6219 -15.442016 -40.9815 0 0 0
1123 2 1 0 -10.2177 -15.442016 -40.9815 0 0 0
1135 2 1 0 -16.2281 -13.359916 -40.9815 0 0 0
1136 2 1 0 -13.8239 -13.359916 -40.9815 0 0 0
1137 2 1 0 -11.4198 -13.359916 -40.9815 0 0 0
1138 2 1 0 -9.0156 -13.359916 -40.9815 0 0 0
1149 2 1 0 -15.026 -11.277816 -40.9815 0 0 0
1150 2 1 0 -12.6219 -11.277816 -40.9815 0 0 0
1151 2 1 0 -10.2177 -11.277816 -40.9815 0 0 0
1345 2 1 0 -16.2281 -14.748016 -39.0185 0 0 0
1346 2 1 0 -13.8239 -14.748016 -39.0185 0 0 0
1347 2 1 0 -11.4198 -14.748016 -39.0185 0 0 0
1348 2 1 0 -9.0156 -14.748016 -39.0185 0 0 0
1359 2 1 0 -15.026 -12.665916 -39.0185 0 0 0
1360 2 1 0 -12.6219 -12.665916 -39.0185 0 0 0
1361 2 1 0 -10.2177 -12.665916 -39.0185 0 0 0
1373 2 1 0 -16.2281 -10.583816 -39.0185 0 0 0
1374 2 1 0 -13.8239 -10.583816 -39.0185 0 0 0
1375 2 1 0 -11.4198 -10.583816 -39.0185 0 0 0
1376 2 1 0 -9.0156 -10.583816 -39.0185 0 0 0
901 2 1 0 -6.6114 -16.136016 -42.9445 0 0 0
902 2 1 0 -4.2073 -16.136016 -42.9445 0 0 0
903 2 1 0 -1.8031 -16.136016 -42.9445 0 0 0
914 2 1 0 -7.8135 -14.053916 -42.9445 0 0 0
915 2 1 0 -5.4094 -14.053916 -42.9445 0 0 0
916 2 1 0 -3.0052 -14.053916 -42.9445 0 0 0
917 2 1 0 -0.601 -14.053916 -42.9445 0 0 0
929 2 1 0 -6.6114 -11.971916 -42.9445 0 0 0
930 2 1 0 -4.2073 -11.971916 -42.9445 0 0 0
931 2 1 0 -1.8031 -11.971916 -42.9445 0 0 0
1124 2 1 0 -7.8135 -15.442016 -40.9815 0 0 0
1125 2 1 0 -5.4094 -15.442016 -40.9815 0 0 0
1126 2 1 0 -3.0052 -15.442016 -40.9815 0 0 0
1127 2 1 0 -0.601 -15.442016 -40.9815 0 0 0
1139 2 1 0 -6.6114 -13.359916 -40.9815 0 0 0
1140 2 1 0 -4.2073 -13.359916 -40.9815 0 0 0
1141 2 1 0 -1.8031 -13.359916 -40.9815 0 0 0
1152 2 1 0 -7.8135 -11.277816 -40.9815 0 0 0
1153 2 1 0 -5.4094 -11.277816 -40.9815 0 0 0
1154 2 1 0 -3.0052 -11.277816 -40.9815 0 0 0
1155 2 1 0 -0.601 -11.277816 -40.9815 0 0 0
1349 2 1 0 -6.6114 -14.748016 -39.0185 0 0 0
1350 2 1 0 -4.2073 -14.748016 -39.0185 0 0 0
1351 2 1 0 -1.8031 -14.748016 -39.0185 0 0 0
1362 2 1 0 -7.8135 -12.665916 -39.0185 0 0 0
1363 2 1 0 -5.4094 -12.665916 -39.0185 0 0 0
1364 2 1 0 -3.0052 -12.665916 -39.0185 0 0 0
1365 2 1 0 -0.601 -12.665916 -39.0185 0 0 0
1377 2 1 0 -6.6114 -10.583816 -39.0185 0 0 0
1378 2 1 0 -4.2073 -10.583816 -39.0185 0 0 0
1379 2 1 0 -1.8031 -10.583816 -39.0185 0 0 0
939 2 1 0 -15.026 -9.889816 -42.9445 0 0 0
940 2 1 0 -12.6219 -9.889816 -42.9445 0 0 0
941 2 1 0 -10.2177 -9.889816 -42.9445 0 0 0
953 2 1 0 -16.2281 -7.807716 -42.9445 0 0 0
954 2 1 0 -13.8239 -7.807716 -42.9445 0 0 0
955 2 1 0 -11.4198 -7.807716 -42.9445 0 0 0
956 2 1 0 -9.0156 -7.807716 -42.9445 0 0 0
967 2 1 0 -15.026 -5.725716 -42.9445 0 0 0
968 2 1 0 -12.6219 -5.725716 -42.9445 0 0 0
969 2 1 0 -10.2177 -5.725716 -42.9445 0 0 0
981 2 1 0 -16.2281 -3.643616 -42.9445 0 0 0
982 2 1 0 -13.8239 -3.643616 -42.9445 0 0 0
983 2 1 0 -11.4198 -3.643616 -42.9445 0 0 0
984 2 1 0 -9.0156 -3.643616 -42.9445 0 0 0
1163 2 1 0 -16.2281 -9.195816 -40.9815 0 0 0
1164 2 1 0 -13.8239 -9.195816 -40.9815 0 0 0
1165 2 1 0 -11.4198 -9.195816 -40.9815 0 0 0
1166 2 1 0 -9.0156 -9.195816 -40.9815 0 0 0
1177 2 1 0 -15.026 -7.113716 -40.9815 0 0 0
1178 2 1 0 -12.6219 -7.113716 -40.9815 0 0 0
1179 2 1 0 -10.2177 -7.113716 -40.9815 0 0 0
1191 2 1 0 -16.2281 -5.031616 -40.9815 0 0 0
1192 2 1 0 -13.8239 -5.031616 -40.9815 0 0 0
1193 2 1 0 -11.4198 -5.031616 -40.9815 0 0 0
1194 2 1 0 -9.0156 -5.031616 -40.9815 0 0 0
1387 2 1 0 -15.026 -8.501816 -39.0185 0 0 0
1388 2 1 0 -12.6219 -8.501816 -39.0185 0 0 0
1389 2 1 0 -10.2177 -8.501816 -39.0185 0 0 0
1401 2 1 0 -16.2281 -6.419716 -39.0185 0 0 0
1402 2 1 0 -13.8239 -6.419716 -39.0185 0 0 0
1403 2 1 0 -11.4198 -6.419716 -39.0185 0 0 0
1404 2 1 0 -9.0156 -6.419716 -39.0185 0 0 0
1415 2 1 0 -15.026 -4.337616 -39.0185 0 0 0
1416 2 1 0 -12.6219 -4.337616 -39.0185 0 0 0
1417 2 1 0 -10.2177 -4.337616 -39.0185 0 0 0
942 2 1 0 -7.8135 -9.889816 -42.9445 0 0 0
943 2 1 0 -5.4094 -9.889816 -42.9445 0 0 0
944 2 1 0 -3.0052 -9.889816 -42.9445 0 0 0
945 2 1 0 -0.601 -9.889816 -42.9445 0 0 0
957 2 1 0 -6.6114 -7.807716 -42.9445 0 0 0
958 2 1 0 -4.2073 -7.807716 -42.9445 0 0 0
959 2 1 0 -1.8031 -7.807716 -42.9445 0 0 0
970 2 1 0 -7.8135 -5.725716 -42.9445 0 0 0
971 2 1 0 -5.4094 -5.725716 -42.9445 0 0 0
972 2 1 0 -3.0052 -5.725716 -42.9445 0 0 0
973 2 1 0 -0.601 -5.725716 -42.9445 0 0 0
985 2 1 0 -6.6114 -3.643616 -42.9445 0 0 0
986 2 1 0 -4.2073 -3.643616 -42.9445 0 0 0
987 2 1 0 -1.8031 -3.643616 -42.9445 0 0 0
1167 2 1 0 -6.6114 -9.195816 -40.9815 0 0 0
1168 2 1 0 -4.2073 -9.195816 -40.9815 0 0 0
1169 2 1 0 -1.8031 -9.195816 -40.9815 0 0 0
1180 2 1 0 -7.8135 -7.113716 -40.9815 0 0 0
1181 2 1 0 -5.4094 -7.113716 -40.9815 0 0 0
1182 2 1 0 -3.0052 -7.113716 -40.9815 0 0 0
1183 2 1 0 -0.601 -7.113716 -40.9815 0 0 0
1195 2 1 0 -6.6114 -5.031616 -40.9815 0 0 0
1196 2 1 0 -4.2073 -5.031616 -40.9815 0 0 0
1197 2 1 0 -1.8031 -5.031616 -40.9815 0 0 0
1390 2 1 0 -7.8135 -8.501816 -39.0185 0 0 0
1391 2 1 0 -5.4094 -8.501816 -39.0185 0 0 0
1392 2 1 0 -3.0052 -8.501816 -39.0185 0 0 0
1393 2 1 0 -0.601 -8.501816 -39.0185 0 0 0
1405 2 1 0 -6.6114 -6.419716 -39.0185 0 0 0
1406 2 1 0 -4.2073 -6.419716 -39.0185 0 0 0
1407 2 1 0 -1.8031 -6.419716 -39.0185 0 0 0
1418 2 1 0 -7.8135 -4.337616 -39.0185 0 0 0
1419 2 1 0 -5.4094 -4.337616 -39.0185 0 0 0
1420 2 1 0 -3.0052 -4.337616 -39.0185 0 0 0
1421 2 1 0 -0.601 -4.337616 -39.0185 0 0 0
995 2 1 0 -15.026 -1.561516 -42.9445 0 0 0
996 2 1 0 -12.6219 -1.561516 -42.9445 0 0 0
997 2 1 0 -10.2177 -1.561516 -42.9445 0 0 0
1009 2 1 0 -16.2281 0.520484 -42.9445 0 0 0
1010 2 1 0 -13.8239 0.520484 -42.9445 0 0 0
1011 2 1 0 -11.4198 0.520484 -42.9445 0 0 0
1012 2 1 0 -9.0156 0.520484 -42.9445 0 0 0
1023 2 1 0 -15.026 2.602584 -42.9445 0 0 0
1024 2 1 0 -12.6219 2.602584 -42.9445 0 0 0
1025 2 1 0 -10.2177 2.602584 -42.9445 0 0 0
1205 2 1 0 -15.026 -2.949616 -40.9815 0 0 0
1206 2 1 0 -12.6219 -2.949616 -40.9815 0 0 0
1207 2 1 0 -10.2177 -2.949616 -40.9815 0 0 0
1219 2 1 0 -16.2281 -0.867516 -40.9815 0 0 0
1220 2 1 0 -13.8239 -0.867516 -40.9815 0 0 0
1221 2 1 0 -11.4198 -0.867516 -40.9815 0 0 0
1222 2 1 0 -9.0156 -0.867516 -40.9815 0 0 0
1233 2 1 0 -15.026 1.214584 -40.9815 0 0 0
1234 2 1 0 -12.6219 1.214584 -40.9815 0 0 0
1235 2 1 0 -10.2177 1.214584 -40.9815 0 0 0
1247 2 1 0 -16.2281 3.296584 -40.9815 0 0 0
1248 2 1 0 -13.8239 3.296584 -40.9815 0 0 0
1249 2 1 0 -11.4198 3.296584 -40.9815 0 0 0
1250 2 1 0 -9.0156 3.296584 -40.9815 0 0 0
1429 2 1 0 -16.2281 -2.255616 -39.0185 0 0 0
1430 2 1 0 -13.8239 -2.255616 -39.0185 0 0 0
1431 2 1 0 -11.4198 -2.255616 -39.0185 0 0 0
1432 2 1 0 -9.0156 -2.255616 -39.0185 0 0 0
1443 2 1 0 -15.026 -0.173516 -39.0185 0 0 0
1444 2 1 0 -12.6219 -0.173516 -39.0185 0 0 0
1445 2 1 0 -10.2177 -0.173516 -39.0185 0 0 0
1457 2 1 0 -16.2281 1.908584 -39.0185 0 0 0
1458 2 1 0 -13.8239 1.908584 -39.0185 0 0 0
1459 2 1 0 -11.4198 1.908584 -39.0185 0 0 0
1460 2 1 0 -9.0156 1.908584 -39.0185 0 0 0
998 2 1 0 -7.8135 -1.561516 -42.9445 0 0 0
999 2 1 0 -5.4094 -1.561516 -42.9445 0 0 0
1000 2 1 0 -3.0052 -1.561516 -42.9445 0 0 0
1001 2 1 0 -0.601 -1.561516 -42.9445 0 0 0
1013 2 1 0 -6.6114 0.520484 -42.9445 0 0 0
1014 2 1 0 -4.2073 0.520484 -42.9445 0 0 0
1015 2 1 0 -1.8031 0.520484 -42.9445 0 0 0
1026 2 1 0 -7.8135 2.602584 -42.9445 0 0 0
1027 2 1 0 -5.4094 2.602584 -42.9445 0 0 0
1028 2 1 0 -3.0052 2.602584 -42.9445 0 0 0
1029 2 1 0 -0.601 2.602584 -42.9445 0 0 0
1208 2 1 0 -7.8135 -2.949616 -40.9815 0 0 0
1209 2 1 0 -5.4094 -2.949616 -40.9815 0 0 0
1210 2 1 0 -3.0052 -2.949616 -40.9815 0 0 0
1211 2 1 0 -0.601 -2.949616 -40.9815 0 0 0
1223 2 1 0 -6.6114 -0.867516 -40.9815 0 0 0
1224 2 1 0 -4.2073 -0.867516 -40.9815 0 0 0
1225 2 1 0 -1.8031 -0.867516 -40.9815 0 0 0
1236 2 1 0 -7.8135 1.214584 -40.9815 0 0 0
1237 2 1 0 -5.4094 1.214584 -40.9815 0 0 0
1238 2 1 0 -3.0052 1.214584 -40.9815 0 0 0
1239 2 1 0 -0.601 1.214584 -40.9815 0 0 0
1251 2 1 0 -6.6114 3.296584 -40.9815 0 0 0
1252 2 1 0 -4.2073 3.296584 -40.9815 0 0 0
1253 2 1 0 -1.8031 3.296584 -40.9815 0 0 0
1433 2 1 0 -6.6114 -2.255616 -39.0185 0 0 0
1434 2 1 0 -4.2073 -2.255616 -39.0185 0 0 0
1435 2 1 0 -1.8031 -2.255616 -39.0185 0 0 0
1446 2 1 0 -7.8135 -0.173516 -39.0185 0 0 0
1447 2 1 0 -5.4094 -0.173516 -39.0185 0 0 0
1448 2 1 0 -3.0052 -0.173516 -39.0185 0 0 0
1449 2 1 0 -0.601 -0.173516 -39.0185 0 0 0
1461 2 1 0 -6.6114 1.908584 -39.0185 0 0 0
1462 2 1 0 -4.2073 1.908584 -39.0185 0 0 0
1463 2 1 0 -1.8031 1.908584 -39.0185 0 0 0
1037 2 1 0 -16.2281 4.684684 -42.9445 0 0 0
1038 2 1 0 -13.8239 4.684684 -42.9445 0 0 0
1039 2 1 0 -11.4198 4.684684 -42.9445 0 0 0
1040 2 1 0 -9.0156 4.684684 -42.9445 0 0 0
1051 2 1 0 -15.026 6.766684 -42.9445 0 0 0
1052 2 1 0 -12.6219 6.766684 -42.9445 0 0 0
1053 2 1 0 -10.2177 6.766684 -42.9445 0 0 0
1065 2 1 0 -16.2281 8.848784 -42.9445 0 0 0
1066 2 1 0 -13.8239 8.848784 -42.9445 0 0 0
1067 2 1 0 -11.4198 8.848784 -42.9445 0 0 0
1068 2 1 0 -9.0156 8.848784 -42.9445 0 0 0
1261 2 1 0 -15.026 5.378684 -40.9815 0 0 0
1262 2 1 0 -12.6219 5.378684 -40.9815 0 0 0
1263 2 1 0 -10.2177 5.378684 -40.9815 0 0 0
1275 2 1 0 -16.2281 7.460784 -40.9815 0 0 0
1276 2 1 0 -13.8239 7.460784 -40.9815 0 0 0
1277 2 1 0 -11.4198 7.460784 -40.9815 0 0 0
1278 2 1 0 -9.0156 7.460784 -40.9815 0 0 0
1289 2 1 0 -15.026 9.542784 -40.9815 0 0 0
1290 2 1 0 -12.6219 9.542784 -40.9815 0 0 0
1291 2 1 0 -10.2177 9.542784 -40.9815 0 0 0
1471 2 1 0 -15.026 3.990584 -39.0185 0 0 0
1472 2 1 0 -12.6219 3.990584 -39.0185 0 0 0
1473 2 1 0 -10.2177 3.990584 -39.0185 0 0 0
1485 2 1 0 -16.2281 6.072684 -39.0185 0 0 0
1486 2 1 0 -13.8239 6.072684 -39.0185 0 0 0
1487 2 1 0 -11.4198 6.072684 -39.0185 0 0 0
1488 2 1 0 -9.0156 6.072684 -39.0185 0 0 0
1499 2 1 0 -15.026 8.154784 -39.0185 0 0 0
1500 2 1 0 -12.6219 8.154784 -39.0185 0 0 0
1501 2 1 0 -10.2177 8.154784 -39.0185 0 0 0
1041 2 1 0 -6.6114 4.684684 -42.9445 0 0 0
1042 2 1 0 -4.2073 4.684684 -42.9445 0 0 0
1043 2 1 0 -1.8031 4.684684 -42.9445 0 0 0
1054 2 1 0 -7.8135 6.766684 -42.9445 0 0 0
1055 2 1 0 -5.4094 6.766684 -42.9445 0 0 0
1056 2 1 0 -3.0052 6.766684 -42.9445 0 0 0
1057 2 1 0 -0.601 6.766684 -42.9445 0 0 0
1069 2 1 0 -6.6114 8.848784 -42.9445 0 0 0
1070 2 1 0 -4.2073 8.848784 -42.9445 0 0 0
1071 2 1 0 -1.8031 8.848784 -42.9445 0 0 0
1264 2 1 0 -7.8135 5.378684 -40.9815 0 0 0
1265 2 1 0 -5.4094 5.378684 -40.9815 0 0 0
1266 2 1 0 -3.0052 5.378684 -40.9815 0 0 0
1267 2 1 0 -0.601 5.378684 -40.9815 0 0 0
1279 2 1 0 -6.6114 7.460784 -40.9815 0 0 0
1280 2 1 0 -4.2073 7.460784 -40.9815 0 0 0
1281 2 1 0 -1.8031 7.460784 -40.9815 0 0 0
1292 2 1 0 -7.8135 9.542784 -40.9815 0 0 0
1293 2 1 0 -5.4094 9.542784 -40.9815 0 0 0
1294 2 1 0 -3.0052 9.542784 -40.9815 0 0 0
1295 2 1 0 -0.601 9.542784 -40.9815 0 0 0
1474 2 1 0 -7.8135 3.990584 -39.0185 0 0 0
1475 2 1 0 -5.4094 3.990584 -39.0185 0 0 0
1476 2 1 0 -3.0052 3.990584 -39.0185 0 0 0
1477 2 1 0 -0.601 3.990584 -39.0185 0 0 0
1489 2 1 0 -6.6114 6.072684 -39.0185 0 0 0
1490 2 1 0 -4.2073 6.072684 -39.0185 0 0 0
1491 2 1 0 -1.8031 6.072684 -39.0185 0 0 0
1502 2 1 0 -7.8135 8.154784 -39.0185 0 0 0
1503 2 1 0 -5.4094 8.154784 -39.0185 0 0 0
1504 2 1 0 -3.0052 8.154784 -39.0185 0 0 0
1505 2 1 0 -0.601 8.154784 -39.0185 0 0 0
1079 2 1 0 -15.026 10.930884 -42.9445 0 0 0
1080 2 1 0 -12.6219 10.930884 -42.9445 0 0 0
1081 2 1 0 -10.2177 10.930884 -42.9445 0 0 0
1093 2 1 0 -16.2281 13.012884 -42.9445 0 0 0
1094 2 1 0 -13.8239 13.012884 -42.9445 0 0 0
1095 2 1 0 -11.4198 13.012884 -42.9445 0 0 0
1096 2 1 0 -9.0156 13.012884 -42.9445 0 0 0
1107 2 1 0 -15.026 15.094984 -42.9445 0 0 0
1108 2 1 0 -12.6219 15.094984 -42.9445 0 0 0
1109 2 1 0 -10.2177 15.094984 -42.9445 0 0 0
1303 2 1 0 -16.2281 11.624884 -40.9815 0 0 0
1304 2 1 0 -13.8239 11.624884 -40.9815 0 0 0
1305 2 1 0 -11.4198 11.624884 -40.9815 0 0 0
1306 2 1 0 -9.0156 11.624884 -40.9815 0 0 0
1317 2 1 0 -15.026 13.706984 -40.9815 0 0 0
1318 2 1 0 -12.6219 13.706984 -40.9815 0 0 0
1319 2 1 0 -10.2177 13.706984 -40.9815 0 0 0
1331 2 1 0 -16.2281 15.788984 -40.9815 0 0 0
1332 2 1 0 -13.8239 15.788984 -40.9815 0 0 0
1333 2 1 0 -11.4198 15.788984 -40.9815 0 0 0
1334 2 1 0 -9.0156 15.788984 -40.9815 0 0 0
1513 2 1 0 -16.2281 10.236784 -39.0185 0 0 0
1514 2 1 0 -13.8239 10.236784 -39.0185 0 0 0
1515 2 1 0 -11.4198 10.236784 -39.0185 0 0 0
1516 2 1 0 -9.0156 10.236784 -39.0185 0 0 0
1527 2 1 0 -15.026 12.318884 -39.0185 0 0 0
1528 2 1 0 -12.6219 12.318884 -39.0185 0 0 0
1529 2 1 0 -10.2177 12.318884 -39.0185 0 0 0
1541 2 1 0 -16.2281 14.400984 -39.0185 0 0 0
1542 2 1 0 -13.8239 14.400984 -39.0185 0 0 0
1543 2 1 0 -11.4198 14.400984 -39.0185 0 0 0
1544 2 1 0 -9.0156 14.400984 -39.0185 0 0 0
1555 2 1 0 -15.026 16.482984 -39.0185 0 0 0
1556 2 1 0 -12.6219 16.482984 -39.0185 0 0 0
1557 2 1 0 -10.2177 16.482984 -39.0185 0 0 0
1082 2 1 0 -7.8135 10.930884 -42.9445 0 0 0
1083 2 1 0 -5.4094 10.930884 -42.9445 0 0 0
1084 2 1 0 -3.0052 10.930884 -42.9445 0 0 0
1085 2 1 0 -0.601 10.930884 -42.9445 0 0 0
1097 2 1 0 -6.6114 13.012884 -42.9445 0 0 0
1098 2 1 0 -4.2073 13.012884 -42.9445 0 0 0
1099 2 1 0 -1.8031 13.012884 -42.9445 0 0 0
1110 2 1 0 -7.8135 15.094984 -42.9445 0 0 0
1111 2 1 0 -5.4094 15.094984 -42.9445 0 0 0
1112 2 1 0 -3.0052 15.094984 -42.9445 0 0 0
1113 2 1 0 -0.601 15.094984 -42.9445 0 0 0
1307 2 1 0 -6.6114 11.624884 -40.9815 0 0 0
1308 2 1 0 -4.2073 11.624884 -40.9815 0 0 0
1309 2 1 0 -1.8031 11.624884 -40.9815 0 0 0
1320 2 1 0 -7.8135 13.706984 -40.9815 0 0 0
1321 2 1 0 -5.4094 13.706984 -40.9815 0 0 0
1322 2 1 0 -3.0052 13.706984 -40.9815 0 0 0
1323 2 1 0 -0.601 13.706984 -40.9815 0 0 0
1335 2 1 0 -6.6114 15.788984 -40.9815 0 0 0
1336 2 1 0 -4.2073 15.788984 -40.9815 0 0 0
1337 2 1 0 -1.8031 15.788984 -40.9815 0 0 0
1517 2 1 0 -6.6114 10.236784 -39.0185 0 0 0
1518 2 1 0 -4.2073 10.236784 -39.0185 0 0 0
1519 2 1 0 -1.8031 10.236784 -39.0185 0 0 0
1530 2 1 0 -7.8135 12.318884 -39.0185 0 0 0
1531 2 1 0 -5.4094 12.318884 -39.0185 0 0 0
1532 2 1 0 -3.0052 12.318884 -39.0185 0 0 0
1533 2 1 0 -0.601 12.318884 -39.0185 0 0 0
1545 2 1 0 -6.6114 14.400984 -39.0185 0 0 0
1546 2 1 0 -4.2073 14.400984 -39.0185 0 0 0
1547 2 1 0 -1.8031 14.400984 -39.0185 0 0 0
1558 2 1 0 -7.8135 16.482984 -39.0185 0 0 0
1559 2 1 0 -5.4094 16.482984 -39.0185 0 0 0
1560 2 1 0 -3.0052 16.482984 -39.0185 0 0 0
1561 2 1 0 -0.601 16.482984 -39.0185 0 0 0
1569 2 1 0 -16.2281 -16.136016 -37.0555 0 0 0
1570 2 1 0 -13.8239 -16.136016 -37.0555 0 0 0
1571 2 1 0 -11.4198 -16.136016 -37.0555 0 0 0
1572 2 1 0 -9.0156 -16.136016 -37.0555 0 0 0
1583 2 1 0 -15.026 -14.053916 -37.0555 0 0 0
1584 2 1 0 -12.6219 -14.053916 -37.0555 0 0 0
1585 2 1 0 -10.2177 -14.053916 -37.0555 0 0 0
1597 2 1 0 -16.2281 -11.971916 -37.0555 0 0 0
1598 2 1 0 -13.8239 -11.971916 -37.0555 0 0 0
1599 2 1 0 -11.4198 -11.971916 -37.0555 0 0 0
1600 2 1 0 -9.0156 -11.971916 -37.0555 0 0 0
1573 2 1 0 -6.6114 -16.136016 -37.0555 0 0 0
1574 2 1 0 -4.2073 -16.136016 -37.0555 0 0 0
1575 2 1 0 -1.8031 -16.136016 -37.0555 0 0 0
1586 2 1 0 -7.8135 -14.053916 -37.0555 0 0 0
1587 2 1 0 -5.4094 -14.053916 -37.0555 0 0 0
1588 2 1 0 -3.0052 -14.053916 -37.0555 0 0 0
1589 2 1 0 -0.601 -14.053916 -37.0555 0 0 0
1601 2 1 0 -6.6114 -11.971916 -37.0555 0 0 0
1602 2 1 0 -4.2073 -11.971916 -37.0555 0 0 0
1603 2 1 0 -1.8031 -11.971916 -37.0555 0 0 0
4295 837 2 0.4238 -2.5144051764716115 -12.314630115460687 -30.910245998508863 0 0 0
4296 837 3 -0.8476 -2.8396223174025277 -11.598481373456808 -31.567754021017475 0 0 0
4297 837 2 0.4238 -1.9708542808973826 -11.392607391849163 -32.05020063668486 0 0 0
4442 886 2 0.4238 -7.500303632917029 -13.211686179322543 -30.71465123588067 0 0 0
4443 886 3 -0.8476 -6.792602360035313 -12.642222165199058 -30.281185565047302 0 0 0
4444 886 2 0.4238 -6.21635666755904 -12.3098464232877 -31.063937585249953 0 0 0
5165 1127 2 0.4238 -6.537667181267431 -13.189436967318802 -28.701878583432112 0 0 0
5166 1127 3 -0.8476 -6.4183962294169845 -13.584256502685266 -27.763516870245365 0 0 0
5167 1127 2 0.4238 -7.2156664001878985 -14.236333790209931 -27.723439715764826 0 0 0
7058 1758 2 0.4238 -4.375598006743871 -11.666760058487093 -32.10179930682418 0 0 0
7059 1758 3 -0.8476 -5.363987828806964 -11.679985182312066 -32.401232693056315 0 0 0
7060 1758 2 0.4238 -5.330912024311353 -11.932754465410802 -33.374377200613054 0 0 0
1611 2 1 0 -15.026 -9.889816 -37.0555 0 0 0
1612 2 1 0 -12.6219 -9.889816 -37.0555 0 0 0
1613 2 1 0 -10.2177 -9.889816 -37.0555 0 0 0
1625 2 1 0 -16.2281 -7.807716 -37.0555 0 0 0
1626 2 1 0 -13.8239 -7.807716 -37.0555 0 0 0
1627 2 1 0 -11.4198 -7.807716 -37.0555 0 0 0
1628 2 1 0 -9.0156 -7.807716 -37.0555 0 0 0
1639 2 1 0 -15.026 -5.725716 -37.0555 0 0 0
1640 2 1 0 -12.6219 -5.725716 -37.0555 0 0 0
1641 2 1 0 -10.2177 -5.725716 -37.0555 0 0 0
1653 2 1 0 -16.2281 -3.643616 -37.0555 0 0 0
1654 2 1 0 -13.8239 -3.643616 -37.0555 0 0 0
1655 2 1 0 -11.4198 -3.643616 -37.0555 0 0 0
1656 2 1 0 -9.0156 -3.643616 -37.0555 0 0 0
2814 343 3 -0.8476 -13.499403862153512 -3.881822887550979 -29.769321948481796 0 0 0
3518 578 2 0.4238 -8.611955854038179 -7.983902230001147 -31.235943359884004 0 0 0
3519 578 3 -0.8476 -7.99057127919292 -7.225789526507272 -31.526171937773 0 0 0
4856 1024 2 0.4238 -10.578273869286859 -4.129293097724343 -30.071924738237502 0 0 0
4857 1024 3 -0.8476 -10.851108369195753 -4.947385996168421 -29.510942788265478 0 0 0
6371 1529 2 0.4238 -11.953452430089309 -5.4306941473795804 -32.26044623405292 0 0 0
6372 1529 3 -0.8476 -12.755118323511187 -4.779429433594152 -32.29039954727807 0 0 0
6373 1529 2 0.4238 -13.272733588354194 -5.044945732360305 -33.10849186089051 0 0 0
6689 1635 2 0.4238 -9.609485720040748 -6.519013926072419 -32.05671551076271 0 0 0
6690 1635 3 -0.8476 -10.577595191395867 -6.238981105917564 -31.929084482305818 0 0 0
6691 1635 2 0.4238 -10.607595532514592 -5.885853390916446 -30.972937060141863 0 0 0
7395 1870 3 -0.8476 -10.751132463817797 -3.0263586407903635 -31.415305278593422 0 0 0
7396 1870 2 0.4238 -11.522631565644097 -3.541602059282292 -31.83354327262326 0 0 0
1614 2 1 0 -7.8135 -9.889816 -37.0555 0 0 0
1615 2 1 0 -5.4094 -9.889816 -37.0555 0 0 0
1616 2 1 0 -3.0052 -9.889816 -37.0555 0 0 0
1617 2 1 0 -0.601 -9.889816 -37.0555 0 0 0
1629 2 1 0 -6.6114 -7.807716 -37.0555 0 0 0
1630 2 1 0 -4.2073 -7.807716 -37.0555 0 0 0
1631 2 1 0 -1.8031 -7.807716 -37.0555 0 0 0
1642 2 1 0 -7.8135 -5.725716 -37.0555 0 0 0
1643 2 1 0 -5.4094 -5.725716 -37.0555 0 0 0
1644 2 1 0 -3.0052 -5.725716 -37.0555 0 0 0
1645 2 1 0 -0.601 -5.725716 -37.0555 0 0 0
1657 2 1 0 -6.6114 -3.643616 -37.0555 0 0 0
1658 2 1 0 -4.2073 -3.643616 -37.0555 0 0 0
1659 2 1 0 -1.8031 -3.643616 -37.0555 0 0 0
2027 81 2 0.4238 -1.9980175680770385 -6.8863307325757255 -30.970554751645267 0 0 0
2028 81 3 -0.8476 -1.116103223395598 -6.3718912674425345 -30.908655052523887 0 0 0
2795 337 2 0.4238 -1.0356139284009875 -4.951410127334431 -31.872686870564547 0 0 0
2796 337 3 -0.8476 -0.9471768351961539 -4.025713579627965 -32.297745806330205 0 0 0
3520 578 2 0.4238 -7.12925964940331 -7.706204995523374 -31.783255500322024 0 0 0
3843 686 3 -0.8476 -7.22785417338365 -5.153097609150558 -29.907643420400184 0 0 0
3844 686 2 0.4238 -7.601847250984671 -5.835401369213041 -30.578750363654173 0 0 0
4667 961 2 0.4238 -5.741388336963634 -5.159728814786662 -31.027355114192005 0 0 0
4668 961 3 -0.8476 -4.868729843789366 -5.434376082729617 -31.46545278556693 0 0 0
4669 961 2 0.4238 -4.427957033554594 -4.56679527955241 -31.785127967663694 0 0 0
5489 1235 2 0.4238 -6.320902063244094 -9.378307685430459 -30.698164461980316 0 0 0
5490 1235 3 -0.8476 -5.828966127621533 -9.086584977692615 -31.5503977326929 0 0 0
5491 1235 2 0.4238 -5.694251966824816 -9.977086867885731 -32.027462895355264 0 0 0
6137 1451 2 0.4238 -4.0374090963592675 -6.749387836778673 -31.13053068110143 0 0 0
6138 1451 3 -0.8476 -3.596679634010795 -7.652804492984132 -30.87968999346552 0 0 0
6139 1451 2 0.4238 -4.348984517156362 -8.269523343919387 -31.2032379549307 0 0 0
6768 1661 3 -0.8476 -3.8291270699609883 -3.559482098597319 -29.261130875966437 0 0 0
6769 1661 2 0.4238 -3.5285279991118004 -4.48762240440178 -28.971122975567642 0 0 0
1667 2 1 0 -15.026 -1.561516 -37.0555 0 0 0
1668 2 1 0 -12.6219 -1.561516 -37.0555 0 0 0
1669 2 1 0 -10.2177 -1.561516 -37.0555 0 0 0
1681 2 1 0 -16.2281 0.520484 -37.0555 0 0 0
1682 2 1 0 -13.8239 0.520484 -37.0555 0 0 0
1683 2 1 0 -11.4198 0.520484 -37.0555 0 0 0
1684 2 1 0 -9.0156 0.520484 -37.0555 0 0 0
1695 2 1 0 -15.026 2.602584 -37.0555 0 0 0
1696 2 1 0 -12.6219 2.602584 -37.0555 0 0 0
1697 2 1 0 -10.2177 2.602584 -37.0555 0 0 0
2240 152 2 0.4238 -11.911980929209605 1.070243597788878 -30.354605182575888 0 0 0
2241 152 3 -0.8476 -11.680165571314008 1.5651179362141248 -31.222248546446504 0 0 0
2242 152 2 0.4238 -11.5996935019092 0.8105046733813577 -31.897778247883007 0 0 0
3071 429 2 0.4238 -8.332026042528515 2.2509674462376696 -31.432524741273024 0 0 0
3072 429 3 -0.8476 -8.502518066638284 2.9473730492549537 -32.17048591557914 0 0 0
3971 729 2 0.4238 -12.830912784159892 -1.2076940821079571 -31.761801372833666 0 0 0
5264 1160 2 0.4238 -10.410805451551337 -0.31046784752816503 -33.0218830387771 0 0 0
5265 1160 3 -0.8476 -11.377500748649805 -0.6601728835003586 -32.88019022613772 0 0 0
5266 1160 2 0.4238 -11.726515337520873 -0.7192375206967507 -33.82234051918124 0 0 0
7394 1870 2 0.4238 -10.795638425160604 -2.1118837080431576 -31.84971162257388 0 0 0
7412 1876 2 0.4238 -8.754383848829168 1.3142611883507036 -33.14459174113583 0 0 0
7413 1876 3 -0.8476 -8.954363415984298 0.3247815544479944 -33.26455489076523 0 0 0
7414 1876 2 0.4238 -8.135726802258718 -0.1557622004626596 -32.883641893218396 0 0 0
1670 2 1 0 -7.8135 -1.561516 -37.0555 0 0 0
1671 2 1 0 -5.4094 -1.561516 -37.0555 0 0 0
1672 2 1 0 -3.0052 -1.561516 -37.0555 0 0 0
1673 2 1 0 -0.601 -1.561516 -37.0555 0 0 0
1685 2 1 0 -6.6114 0.520484 -37.0555 0 0 0
1686 2 1 0 -4.2073 0.520484 -37.0555 0 0 0
1687 2 1 0 -1.8031 0.520484 -37.0555 0 0 0
1698 2 1 0 -7.8135 2.602584 -37.0555 0 0 0
1699 2 1 0 -5.4094 2.602584 -37.0555 0 0 0
1700 2 1 0 -3.0052 2.602584 -37.0555 0 0 0
1701 2 1 0 -0.601 2.602584 -37.0555 0 0 0
2301 172 3 -0.8476 -3.6599049410865403 1.5457223287911717 -32.00030417583904 0 0 0
2337 184 3 -0.8476 -7.784322869980878 1.1477546801550338 -30.35636378297683 0 0 0
2338 184 2 0.4238 -7.467588093778064 0.3765468464417665 -30.956651653446965 0 0 0
2429 215 2 0.4238 -3.70265745049245 -2.2963268934501744 -32.378961215061096 0 0 0
2430 215 3 -0.8476 -3.46144965716371 -3.1657507675202083 -31.896669506368426 0 0 0
2431 215 2 0.4238 -2.491152649384664 -3.3774909074027617 -32.17503261067232 0 0 0
5936 1384 2 0.4238 -3.87099181659118 12.139484074334545 -26.264798110897946 0 0 0
2964 393 3 -0.8476 -6.77845317894462 -0.7721767557272659 -31.95627835889384 0 0 0
3221 479 2 0.4238 -4.05354573732995 0.09778768797712512 -32.687937170319685 0 0 0
3222 479 3 -0.8476 -4.2845271711054655 -0.8084278773537368 -33.12095490030215 0 0 0
3223 479 2 0.4238 -4.056685616085435 -0.696171301548058 -34.0938746620191 0 0 0
5063 1093 2 0.4238 -0.7653533998234743 1.0907817306880223 -31.108013046112365 0 0 0
5064 1093 3 -0.8476 -1.2827555723944564 0.22087636206495595 -31.29468615617684 0 0 0
5065 1093 2 0.4238 -2.139843667446889 0.5571777119498335 -31.726985818626066 0 0 0
1709 2 1 0 -16.2281 4.684684 -37.0555 0 0 0
1710 2 1 0 -13.8239 4.684684 -37.0555 0 0 0
1711 2 1 0 -11.4198 4.684684 -37.0555 0 0 0
1712 2 1 0 -9.0156 4.684684 -37.0555 0 0 0
1723 2 1 0 -15.026 6.766684 -37.0555 0 0 0
1724 2 1 0 -12.6219 6.766684 -37.0555 0 0 0
1725 2 1 0 -10.2177 6.766684 -37.0555 0 0 0
1737 2 1 0 -16.2281 8.848784 -37.0555 0 0 0
1738 2 1 0 -13.8239 8.848784 -37.0555 0 0 0
1739 2 1 0 -11.4198 8.848784 -37.0555 0 0 0
1740 2 1 0 -9.0156 8.848784 -37.0555 0 0 0
2484 233 3 -0.8476 -12.987393422883619 7.98661487047398 -30.965528522313257 0 0 0
2485 233 2 0.4238 -12.440400310523133 7.3332932999077265 -31.556582654873257 0 0 0
2589 268 3 -0.8476 -9.200342227990355 8.176162127690171 -32.21562208947251 0 0 0
2590 268 2 0.4238 -8.363708343899924 8.76061996229244 -32.348117132643644 0 0 0
3073 429 2 0.4238 -9.389524482851092 3.3880448586575715 -31.90621963865996 0 0 0
3675 630 3 -0.8476 -8.46811483074029 6.669729856326458 -30.134920925990333 0 0 0
3676 630 2 0.4238 -7.763855976838296 6.009197402222155 -30.46688167949999 0 0 0
4832 1016 2 0.4238 -11.11997792272649 5.491727266802354 -32.06808326244368 0 0 0
4833 1016 3 -0.8476 -11.377360100627948 6.436790004807905 -32.36233690745827 0 0 0
4834 1016 2 0.4238 -10.500046270602054 6.922607818031965 -32.54289436808873 0 0 0
1713 2 1 0 -6.6114 4.684684 -37.0555 0 0 0
1714 2 1 0 -4.2073 4.684684 -37.0555 0 0 0
1715 2 1 0 -1.8031 4.684684 -37.0555 0 0 0
1726 2 1 0 -7.8135 6.766684 -37.0555 0 0 0
1727 2 1 0 -5.4094 6.766684 -37.0555 0 0 0
1728 2 1 0 -3.0052 6.766684 -37.0555 0 0 0
1729 2 1 0 -0.601 6.766684 -37.0555 0 0 0
1741 2 1 0 -6.6114 8.848784 -37.0555 0 0 0
1742 2 1 0 -4.2073 8.848784 -37.0555 0 0 0
1743 2 1 0 -1.8031 8.848784 -37.0555 0 0 0
2302 172 2 0.4238 -3.9424505741902234 2.4566478939615957 -32.36529180799448 0 0 0
3016 410 2 0.4238 -6.174358223276407 10.030446780144478 -32.50691882488584 0 0 0
3026 414 2 0.4238 -2.8374474687820426 4.463322831802213 -31.71245748808298 0 0 0
3027 414 3 -0.8476 -2.014838245043526 4.238350085444427 -31.14980183462808 0 0 0
3028 414 2 0.4238 -1.3910288711721848 5.050871132361912 -31.188405609004796 0 0 0
5624 1280 2 0.4238 -5.256906732525762 4.417211263190056 -31.860656809911223 0 0 0
5625 1280 3 -0.8476 -4.457576716751881 4.215545425369825 -32.47498628266808 0 0 0
5626 1280 2 0.4238 -4.724025103716403 4.639067973117127 -33.34699274623953 0 0 0
6031 1415 2 0.4238 -3.7786180234599067 7.907934443385276 -29.359929052194378 0 0 0
6551 1589 2 0.4238 -6.831036276830346 4.323855597284639 -30.066250641192795 0 0 0
6552 1589 3 -0.8476 -6.739605248940479 4.65577697808977 -31.033512141519296 0 0 0
6553 1589 2 0.4238 -7.3772784634861495 4.052416391275344 -31.567875741354317 0 0 0
1751 2 1 0 -15.026 10.930884 -37.0555 0 0 0
1752 2 1 0 -12.6219 10.930884 -37.0555 0 0 0
1753 2 1 0 -10.2177 10.930884 -37.0555 0 0 0
1765 2 1 0 -16.2281 13.012884 -37.0555 0 0 0
1766 2 1 0 -13.8239 13.012884 -37.0555 0 0 0
1767 2 1 0 -11.4198 13.012884 -37.0555 0 0 0
1768 2 1 0 -9.0156 13.012884 -37.0555 0 0 0
1779 2 1 0 -15.026 15.094984 -37.0555 0 0 0
1780 2 1 0 -12.6219 15.094984 -37.0555 0 0 0
1781 2 1 0 -10.2177 15.094984 -37.0555 0 0 0
2483 233 2 0.4238 -13.903406912259587 7.997215928857104 -31.38082980169752 0 0 0
2588 268 2 0.4238 -9.858878401830381 8.837426111886796 -31.792386975591878 0 0 0
2885 367 2 0.4238 -8.156146325518868 13.803535896995918 -28.884527818721573 0 0 0
6488 1568 2 0.4238 -12.685666581856927 12.473428463629604 -31.75041884385259 0 0 0
6489 1568 3 -0.8476 -12.348974899280464 11.97522365323975 -30.945944142932355 0 0 0
6490 1568 2 0.4238 -13.210520572716073 11.764404138066087 -30.40825400180448 0 0 0
1754 2 1 0 -7.8135 10.930884 -37.0555 0 0 0
1755 2 1 0 -5.4094 10.930884 -37.0555 0 0 0
1756 2 1 0 -3.0052 10.930884 -37.0555 0 0 0
1757 2 1 0 -0.601 10.930884 -37.0555 0 0 0
1769 2 1 0 -6.6114 13.012884 -37.0555 0 0 0
1770 2 1 0 -4.2073 13.012884 -37.0555 0 0 0
1771 2 1 0 -1.8031 13.012884 -37.0555 0 0 0
1782 2 1 0 -7.8135 15.094984 -37.0555 0 0 0
1783 2 1 0 -5.4094 15.094984 -37.0555 0 0 0
1784 2 1 0 -3.0052 15.094984 -37.0555 0 0 0
1785 2 1 0 -0.601 15.094984 -37.0555 0 0 0
2428 214 2 0.4238 -7.31835677724019 11.573614417836392 -29.127871492689867 0 0 0
3014 410 2 0.4238 -7.018152664079523 10.19532817325234 -31.14536056613732 0 0 0
3015 410 3 -0.8476 -7.0573780140288385 9.802751187526043 -32.08947207432409 0 0 0
6350 1522 2 0.4238 -0.10548059272290132 11.42426326977002 -25.06072999286884 0 0 0
7606 1940 2 0.4238 -6.401687876046335 12.789663007415164 -25.91017005473072 0 0 0
5773 1329 2 0.4238 -1.962850514825525 10.60607021110417 -26.043500805702475 0 0 0
7150 1788 2 0.4238 -2.548032745655114 12.236626731268252 -30.757300142277682 0 0 0
2188 134 2 0.4238 -10.565993523644872 -9.788726694013706 -27.3271663732513 0 0 0
3560 592 2 0.4238 -10.533901744047196 -12.270954493339678 -27.828863597690283 0 0 0
3561 592 3 -0.8476 -10.539374048762603 -13.117564586475934 -27.245706255651893 0 0 0
3562 592 2 0.4238 -11.519378159989818 -13.147213197763199 -26.945756619539168 0 0 0
6289 1501 2 0.4238 -5.486836197344188 9.963712128689513 -29.374837568226642 0 0 0
6566 1594 2 0.4238 -0.378519359970645 4.589738208165412 -28.140465335098284 0 0 0
5938 1384 2 0.4238 -4.987587135797246 11.671612844377137 -25.244874219828304 0 0 0
4427 881 2 0.4238 -8.903803507905797 -10.432095741718964 -25.385595573247123 0 0 0
4428 881 3 -0.8476 -7.938431287000008 -10.403860505361644 -25.089112977291787 0 0 0
4958 1058 2 0.4238 -9.929821028752906 -13.287414609803559 -25.72407225991322 0 0 0
6055 1423 2 0.4238 -0.9951602955687522 14.376802508588387 -31.22745461101219 0 0 0
3874 696 2 0.4238 -0.12492576547696727 11.778519908681828 -31.591294272545355 0 0 0
5741 1319 2 0.4238 -10.600251275358099 -10.298842078982666 -29.419980285838427 0 0 0