ITEM: TIMESTEP
0
ITEM: NUMBER OF ATOMS
7792
ITEM: BOX BOUNDS pp pp pp
-1.6829100000000000e+01 1.6829100000000000e+01
-1.6656500000000001e+01 1.6656500000000001e+01
-5.0000000000000000e+01 5.0000000000000000e+01
ITEM: ATOMS id type xsu ysu zsu
897 1 0.017856 0.0156241 0.070555
898 1 0.0892858 0.0156241 0.070555
899 1 0.160713 0.0156241 0.070555
900 1 0.232143 0.0156241 0.070555
911 1 0.0535709 0.0781252 0.070555
912 1 0.124998 0.0781252 0.070555
913 1 0.196428 0.0781252 0.070555
925 1 0.017856 0.140623 0.070555
926 1 0.0892858 0.140623 0.070555
927 1 0.160713 0.140623 0.070555
928 1 0.232143 0.140623 0.070555
1121 1 0.0535709 0.0364568 0.090185
1122 1 0.124998 0.0364568 0.090185
1123 1 0.196428 0.0364568 0.090185
1135 1 0.017856 0.0989579 0.090185
1136 1 0.0892858 0.0989579 0.090185
1137 1 0.160713 0.0989579 0.090185
1138 1 0.232143 0.0989579 0.090185
1149 1 0.0535709 0.161459 0.090185
1150 1 0.124998 0.161459 0.090185
1151 1 0.196428 0.161459 0.090185
1345 1 0.017856 0.0572895 0.109815
1346 1 0.0892858 0.0572895 0.109815
1347 1 0.160713 0.0572895 0.109815
1348 1 0.232143 0.0572895 0.109815
1359 1 0.0535709 0.119791 0.109815
1360 1 0.124998 0.119791 0.109815
1361 1 0.196428 0.119791 0.109815
1373 1 0.017856 0.182292 0.109815
1374 1 0.0892858 0.182292 0.109815
1375 1 0.160713 0.182292 0.109815
1376 1 0.232143 0.182292 0.109815
901 1 0.303572 0.0156241 0.070555
902 1 0.374999 0.0156241 0.070555
903 1 0.446429 0.0156241 0.070555
914 1 0.267857 0.0781252 0.070555
915 1 0.339284 0.0781252 0.070555
916 1 0.410714 0.0781252 0.070555
917 1 0.482144 0.0781252 0.070555
929 1 0.303572 0.140623 0.070555
930 1 0.374999 0.140623 0.070555
931 1 0.446429 0.140623 0.070555
1124 1 0.267857 0.0364568 0.090185
1125 1 0.339284 0.0364568 0.090185
1126 1 0.410714 0.0364568 0.090185
1127 1 0.482144 0.0364568 0.090185
1139 1 0.303572 0.0989579 0.090185
1140 1 0.374999 0.0989579 0.090185
1141 1 0.446429 0.0989579 0.090185
1152 1 0.267857 0.161459 0.090185
1153 1 0.339284 0.161459 0.090185
1154 1 0.410714 0.161459 0.090185
1155 1 0.482144 0.161459 0.090185
1349 1 0.303572 0.0572895 0.109815
1350 1 0.374999 0.0572895 0.109815
1351 1 0.446429 0.0572895 0.109815
1362 1 0.267857 0.119791 0.109815
1363 1 0.339284 0.119791 0.109815
1364 1 0.410714 0.119791 0.109815
1365 1 0.482144 0.119791 0.109815
1377 1 0.303572 0.182292 0.109815
1378 1 0.374999 0.182292 0.109815
1379 1 0.446429 0.182292 0.109815
939 1 0.0535709 0.203124 0.070555
940 1 0.124998 0.203124 0.070555
941 1 0.196428 0.203124 0.070555
953 1 0.017856 0.265626 0.070555
954 1 0.0892858 0.265626 0.070555
955 1 0.160713 0.265626 0.070555
956 1 0.232143 0.265626 0.070555
967 1 0.0535709 0.328124 0.070555
968 1 0.124998 0.328124 0.070555
969 1 0.196428 0.328124 0.070555
981 1 0.017856 0.390625 0.070555
982 1 0.0892858 0.390625 0.070555
983 1 0.160713 0.390625 0.070555
984 1 0.232143 0.390625 0.070555
1163 1 0.017856 0.223957 0.090185
1164 1 0.0892858 0.223957 0.090185
1165 1 0.160713 0.223957 0.090185
1166 1 0.232143 0.223957 0.090185
1177 1 0.0535709 0.286458 0.090185
1178 1 0.124998 0.286458 0.090185
1179 1 0.196428 0.286458 0.090185
1191 1 0.017856 0.348959 0.090185
1192 1 0.0892858 0.348959 0.090185
1193 1 0.160713 0.348959 0.090185
1194 1 0.232143 0.348959 0.090185
1387 1 0.0535709 0.24479 0.109815
1388 1 0.124998 0.24479 0.109815
1389 1 0.196428 0.24479 0.109815
1401 1 0.017856 0.307291 0.109815
1402 1 0.0892858 0.307291 0.109815
1403 1 0.160713 0.307291 0.109815
1404 1 0.232143 0.307291 0.109815
1415 1 0.0535709 0.369792 0.109815
1416 1 0.124998 0.369792 0.109815
1417 1 0.196428 0.369792 0.109815
942 1 0.267857 0.203124 0.070555
943 1 0.339284 0.203124 0.070555
944 1 0.410714 0.203124 0.070555
945 1 0.482144 0.203124 0.070555
957 1 0.303572 0.265626 0.070555
958 1 0.374999 0.265626 0.070555
959 1 0.446429 0.265626 0.070555
970 1 0.267857 0.328124 0.070555
971 1 0.339284 0.328124 0.070555
972 1 0.410714 0.328124 0.070555
973 1 0.482144 0.328124 0.070555
985 1 0.303572 0.390625 0.070555
986 1 0.374999 0.390625 0.070555
987 1 0.446429 0.390625 0.070555
1167 1 0.303572 0.223957 0.090185
1168 1 0.374999 0.223957 0.090185
1169 1 0.446429 0.223957 0.090185
1180 1 0.267857 0.286458 0.090185
1181 1 0.339284 0.286458 0.090185
1182 1 0.410714 0.286458 0.090185
1183 1 0.482144 0.286458 0.090185
1195 1 0.303572 0.348959 0.090185
1196 1 0.374999 0.348959 0.090185
1197 1 0.446429 0.348959 0.090185
1390 1 0.267857 0.24479 0.109815
1391 1 0.339284 0.24479 0.109815
1392 1 0.410714 0.24479 0.109815
1393 1 0.482144 0.24479 0.109815
1405 1 0.303572 0.307291 0.109815
1406 1 0.374999 0.307291 0.109815
1407 1 0.446429 0.307291 0.109815
1418 1 0.267857 0.369792 0.109815
1419 1 0.339284 0.369792 0.109815
1420 1 0.410714 0.369792 0.109815
1421 1 0.482144 0.369792 0.109815
995 1 0.0535709 0.453126 0.070555
996 1 0.124998 0.453126 0.070555
997 1 0.196428 0.453126 0.070555
1009 1 0.017856 0.515624 0.070555
1010 1 0.0892858 0.515624 0.070555
1011 1 0.160713 0.515624 0.070555
1012 1 0.232143 0.515624 0.070555
1023 1 0.0535709 0.578125 0.070555
1024 1 0.124998 0.578125 0.070555
1025 1 0.196428 0.578125 0.070555
1205 1 0.0535709 0.411458 0.090185
1206 1 0.124998 0.411458 0.090185
1207 1 0.196428 0.411458 0.090185
1219 1 0.017856 0.473959 0.090185
1220 1 0.0892858 0.473959 0.090185
1221 1 0.160713 0.473959 0.090185
1222 1 0.232143 0.473959 0.090185
1233 1 0.0535709 0.53646 0.090185
1234 1 0.124998 0.53646 0.090185
1235 1 0.196428 0.53646 0.090185
1247 1 0.017856 0.598958 0.090185
1248 1 0.0892858 0.598958 0.090185
1249 1 0.160713 0.598958 0.090185
1250 1 0.232143 0.598958 0.090185
1429 1 0.017856 0.43229 0.109815
1430 1 0.0892858 0.43229 0.109815
1431 1 0.160713 0.43229 0.109815
1432 1 0.232143 0.43229 0.109815
1443 1 0.0535709 0.494791 0.109815
1444 1 0.124998 0.494791 0.109815
1445 1 0.196428 0.494791 0.109815
1457 1 0.017856 0.557292 0.109815
1458 1 0.0892858 0.557292 0.109815
1459 1 0.160713 0.557292 0.109815
1460 1 0.232143 0.557292 0.109815
998 1 0.267857 0.453126 0.070555
999 1 0.339284 0.453126 0.070555
1000 1 0.410714 0.453126 0.070555
1001 1 0.482144 0.453126 0.070555
1013 1 0.303572 0.515624 0.070555
1014 1 0.374999 0.515624 0.070555
1015 1 0.446429 0.515624 0.070555
1026 1 0.267857 0.578125 0.070555
1027 1 0.339284 0.578125 0.070555
1028 1 0.410714 0.578125 0.070555
1029 1 0.482144 0.578125 0.070555
1208 1 0.267857 0.411458 0.090185
1209 1 0.339284 0.411458 0.090185
1210 1 0.410714 0.411458 0.090185
1211 1 0.482144 0.411458 0.090185
1223 1 0.303572 0.473959 0.090185
1224 1 0.374999 0.473959 0.090185
1225 1 0.446429 0.473959 0.090185
1236 1 0.267857 0.53646 0.090185
1237 1 0.339284 0.53646 0.090185
1238 1 0.410714 0.53646 0.090185
1239 1 0.482144 0.53646 0.090185
1251 1 0.303572 0.598958 0.090185
1252 1 0.374999 0.598958 0.090185
1253 1 0.446429 0.598958 0.090185
1433 1 0.303572 0.43229 0.109815
1434 1 0.374999 0.43229 0.109815
1435 1 0.446429 0.43229 0.109815
1446 1 0.267857 0.494791 0.109815
1447 1 0.339284 0.494791 0.109815
1448 1 0.410714 0.494791 0.109815
1449 1 0.482144 0.494791 0.109815
1461 1 0.303572 0.557292 0.109815
1462 1 0.374999 0.557292 0.109815
1463 1 0.446429 0.557292 0.109815
1037 1 0.017856 0.640626 0.070555
1038 1 0.0892858 0.640626 0.070555
1039 1 0.160713 0.640626 0.070555
1040 1 0.232143 0.640626 0.070555
1051 1 0.0535709 0.703124 0.070555
1052 1 0.124998 0.703124 0.070555
1053 1 0.196428 0.703124 0.070555
1065 1 0.017856 0.765626 0.070555
1066 1 0.0892858 0.765626 0.070555
1067 1 0.160713 0.765626 0.070555
1068 1 0.232143 0.765626 0.070555
1261 1 0.0535709 0.661459 0.090185
1262 1 0.124998 0.661459 0.090185
1263 1 0.196428 0.661459 0.090185
1275 1 0.017856 0.72396 0.090185
1276 1 0.0892858 0.72396 0.090185
1277 1 0.160713 0.72396 0.090185
1278 1 0.232143 0.72396 0.090185
1289 1 0.0535709 0.786458 0.090185
1290 1 0.124998 0.786458 0.090185
1291 1 0.196428 0.786458 0.090185
1471 1 0.0535709 0.619791 0.109815
1472 1 0.124998 0.619791 0.109815
1473 1 0.196428 0.619791 0.109815
1485 1 0.017856 0.682292 0.109815
1486 1 0.0892858 0.682292 0.109815
1487 1 0.160713 0.682292 0.109815
1488 1 0.232143 0.682292 0.109815
1499 1 0.0535709 0.744793 0.109815
1500 1 0.124998 0.744793 0.109815
1501 1 0.196428 0.744793 0.109815
1041 1 0.303572 0.640626 0.070555
1042 1 0.374999 0.640626 0.070555
1043 1 0.446429 0.640626 0.070555
1054 1 0.267857 0.703124 0.070555
1055 1 0.339284 0.703124 0.070555
1056 1 0.410714 0.703124 0.070555
1057 1 0.482144 0.703124 0.070555
1069 1 0.303572 0.765626 0.070555
1070 1 0.374999 0.765626 0.070555
1071 1 0.446429 0.765626 0.070555
1264 1 0.267857 0.661459 0.090185
1265 1 0.339284 0.661459 0.090185
1266 1 0.410714 0.661459 0.090185
1267 1 0.482144 0.661459 0.090185
1279 1 0.303572 0.72396 0.090185
1280 1 0.374999 0.72396 0.090185
1281 1 0.446429 0.72396 0.090185
1292 1 0.267857 0.786458 0.090185
1293 1 0.339284 0.786458 0.090185
1294 1 0.410714 0.786458 0.090185
1295 1 0.482144 0.786458 0.090185
1474 1 0.267857 0.619791 0.109815
1475 1 0.339284 0.619791 0.109815
1476 1 0.410714 0.619791 0.109815
1477 1 0.482144 0.619791 0.109815
1489 1 0.303572 0.682292 0.109815
1490 1 0.374999 0.682292 0.109815
1491 1 0.446429 0.682292 0.109815
1502 1 0.267857 0.744793 0.109815
1503 1 0.339284 0.744793 0.109815
1504 1 0.410714 0.744793 0.109815
1505 1 0.482144 0.744793 0.109815
1079 1 0.0535709 0.828127 0.070555
1080 1 0.124998 0.828127 0.070555
1081 1 0.196428 0.828127 0.070555
1093 1 0.017856 0.890625 0.070555
1094 1 0.0892858 0.890625 0.070555
1095 1 0.160713 0.890625 0.070555
1096 1 0.232143 0.890625 0.070555
1107 1 0.0535709 0.953126 0.070555
1108 1 0.124998 0.953126 0.070555
1109 1 0.196428 0.953126 0.070555
1303 1 0.017856 0.848959 0.090185
1304 1 0.0892858 0.848959 0.090185
1305 1 0.160713 0.848959 0.090185
1306 1 0.232143 0.848959 0.090185
1317 1 0.0535709 0.911461 0.090185
1318 1 0.124998 0.911461 0.090185
1319 1 0.196428 0.911461 0.090185
1331 1 0.017856 0.973959 0.090185
1332 1 0.0892858 0.973959 0.090185
1333 1 0.160713 0.973959 0.090185
1334 1 0.232143 0.973959 0.090185
1513 1 0.017856 0.807291 0.109815
1514 1 0.0892858 0.807291 0.109815
1515 1 0.160713 0.807291 0.109815
1516 1 0.232143 0.807291 0.109815
1527 1 0.0535709 0.869792 0.109815
1528 1 0.124998 0.869792 0.109815
1529 1 0.196428 0.869792 0.109815
1541 1 0.017856 0.932293 0.109815
1542 1 0.0892858 0.932293 0.109815
1543 1 0.160713 0.932293 0.109815
1544 1 0.232143 0.932293 0.109815
1555 1 0.0535709 0.994791 0.109815
1556 1 0.124998 0.994791 0.109815
1557 1 0.196428 0.994791 0.109815
1082 1 0.267857 0.828127 0.070555
1083 1 0.339284 0.828127 0.070555
1084 1 0.410714 0.828127 0.070555
1085 1 0.482144 0.828127 0.070555
1097 1 0.303572 0.890625 0.070555
1098 1 0.374999 0.890625 0.070555
1099 1 0.446429 0.890625 0.070555
1110 1 0.267857 0.953126 0.070555
1111 1 0.339284 0.953126 0.070555
1112 1 0.410714 0.953126 0.070555
1113 1 0.482144 0.953126 0.070555
1307 1 0.303572 0.848959 0.090185
1308 1 0.374999 0.848959 0.090185
1309 1 0.446429 0.848959 0.090185
1320 1 0.267857 0.911461 0.090185
1321 1 0.339284 0.911461 0.090185
1322 1 0.410714 0.911461 0.090185
1323 1 0.482144 0.911461 0.090185
1335 1 0.303572 0.973959 0.090185
1336 1 0.374999 0.973959 0.090185
1337 1 0.446429 0.973959 0.090185
1517 1 0.303572 0.807291 0.109815
1518 1 0.374999 0.807291 0.109815
1519 1 0.446429 0.807291 0.109815
1530 1 0.267857 0.869792 0.109815
1531 1 0.339284 0.869792 0.109815
1532 1 0.410714 0.869792 0.109815
1533 1 0.482144 0.869792 0.109815
1545 1 0.303572 0.932293 0.109815
1546 1 0.374999 0.932293 0.109815
1547 1 0.446429 0.932293 0.109815
1558 1 0.267857 0.994791 0.109815
1559 1 0.339284 0.994791 0.109815
1560 1 0.410714 0.994791 0.109815
1561 1 0.482144 0.994791 0.109815
1569 1 0.017856 0.0156241 0.129445
1570 1 0.0892858 0.0156241 0.129445
1571 1 0.160713 0.0156241 0.129445
1572 1 0.232143 0.0156241 0.129445
1583 1 0.0535709 0.0781252 0.129445
1584 1 0.124998 0.0781252 0.129445
1585 1 0.196428 0.0781252 0.129445
1597 1 0.017856 0.140623 0.129445
1598 1 0.0892858 0.140623 0.129445
1599 1 0.160713 0.140623 0.129445
1600 1 0.232143 0.140623 0.129445
1573 1 0.303572 0.0156241 0.129445
1574 1 0.374999 0.0156241 0.129445
1575 1 0.446429 0.0156241 0.129445
1586 1 0.267857 0.0781252 0.129445
1587 1 0.339284 0.0781252 0.129445
1588 1 0.410714 0.0781252 0.129445
1589 1 0.482144 0.0781252 0.129445
1601 1 0.303572 0.140623 0.129445
1602 1 0.374999 0.140623 0.129445
1603 1 0.446429 0.140623 0.129445
4296 3 0.41567 0.151807 0.184328
4297 2 0.441084 0.157927 0.179566
7058 2 0.369118 0.149772 0.178892
7059 3 0.340689 0.149384 0.17599
7060 2 0.34161 0.141845 0.166315
7347 3 0.496518 0.132198 0.181594
1611 1 0.0535709 0.203124 0.129445
1612 1 0.124998 0.203124 0.129445
1613 1 0.196428 0.203124 0.129445
1625 1 0.017856 0.265626 0.129445
1626 1 0.0892858 0.265626 0.129445
1627 1 0.160713 0.265626 0.129445
1628 1 0.232143 0.265626 0.129445
1639 1 0.0535709 0.328124 0.129445
1640 1 0.124998 0.328124 0.129445
1641 1 0.196428 0.328124 0.129445
1653 1 0.017856 0.390625 0.129445
1654 1 0.0892858 0.390625 0.129445
1655 1 0.160713 0.390625 0.129445
1656 1 0.232143 0.390625 0.129445
6371 2 0.144134 0.337574 0.177386
6372 3 0.121081 0.35649 0.177094
6373 2 0.105724 0.348592 0.168948
6689 2 0.214068 0.304436 0.179452
6690 3 0.185761 0.312721 0.180719
7396 2 0.158036 0.393942 0.181734
3519 3 0.262601 0.283048 0.184739
1614 1 0.267857 0.203124 0.129445
1615 1 0.339284 0.203124 0.129445
1616 1 0.410714 0.203124 0.129445
1617 1 0.482144 0.203124 0.129445
1629 1 0.303572 0.265626 0.129445
1630 1 0.374999 0.265626 0.129445
1631 1 0.446429 0.265626 0.129445
1642 1 0.267857 0.328124 0.129445
1643 1 0.339284 0.328124 0.129445
1644 1 0.410714 0.328124 0.129445
1645 1 0.482144 0.328124 0.129445
1657 1 0.303572 0.390625 0.129445
1658 1 0.374999 0.390625 0.129445
1659 1 0.446429 0.390625 0.129445
2795 2 0.469286 0.351946 0.181185
2796 3 0.471877 0.379122 0.177028
3520 2 0.287726 0.268932 0.182214
4668 3 0.355344 0.336913 0.185345
4669 2 0.368148 0.362326 0.182221
5490 3 0.326801 0.227192 0.184504
5491 2 0.330749 0.200986 0.179811
2431 2 0.425151 0.398798 0.17833
7395 3 0.180554 0.40916 0.185839
1667 1 0.0535709 0.453126 0.129445
1668 1 0.124998 0.453126 0.129445
1669 1 0.196428 0.453126 0.129445
1681 1 0.017856 0.515624 0.129445
1682 1 0.0892858 0.515624 0.129445
1683 1 0.160713 0.515624 0.129445
1684 1 0.232143 0.515624 0.129445
1695 1 0.0535709 0.578125 0.129445
1696 1 0.124998 0.578125 0.129445
1697 1 0.196428 0.578125 0.129445
2242 2 0.155332 0.524673 0.181124
3072 3 0.247356 0.588459 0.178311
3971 2 0.118586 0.463653 0.182475
5264 2 0.189706 0.49032 0.16983
5265 3 0.162027 0.480205 0.171191
5266 2 0.151667 0.478421 0.161838
7394 2 0.179274 0.436257 0.181558
7412 2 0.23981 0.538986 0.168535
7413 3 0.234 0.509759 0.167361
5099 2 0.167228 0.594052 0.187505
3071 2 0.252316 0.56813 0.185477
7414 2 0.257767 0.495631 0.171083
1670 1 0.267857 0.453126 0.129445
1671 1 0.339284 0.453126 0.129445
1672 1 0.410714 0.453126 0.129445
1673 1 0.482144 0.453126 0.129445
1685 1 0.303572 0.515624 0.129445
1686 1 0.374999 0.515624 0.129445
1687 1 0.446429 0.515624 0.129445
1698 1 0.267857 0.578125 0.129445
1699 1 0.339284 0.578125 0.129445
1700 1 0.410714 0.578125 0.129445
1701 1 0.482144 0.578125 0.129445
2301 3 0.391255 0.546444 0.180007
2429 2 0.390148 0.430502 0.176315
2430 3 0.397202 0.404994 0.181022
2964 3 0.29865 0.476781 0.180443
3221 2 0.379375 0.502174 0.172999
3222 3 0.372719 0.475782 0.168795
3223 2 0.379436 0.479083 0.159116
5064 3 0.461889 0.506685 0.187052
5065 2 0.436837 0.516562 0.1828
2302 2 0.383034 0.573204 0.176419
2965 2 0.3243 0.474952 0.175433
1709 1 0.017856 0.640626 0.129445
1710 1 0.0892858 0.640626 0.129445
1711 1 0.160713 0.640626 0.129445
1712 1 0.232143 0.640626 0.129445
1723 1 0.0535709 0.703124 0.129445
1724 1 0.124998 0.703124 0.129445
1725 1 0.196428 0.703124 0.129445
1737 1 0.017856 0.765626 0.129445
1738 1 0.0892858 0.765626 0.129445
1739 1 0.160713 0.765626 0.129445
1740 1 0.232143 0.765626 0.129445
2485 2 0.129843 0.720793 0.184633
2589 3 0.226668 0.745493 0.177848
3073 2 0.22165 0.601394 0.180876
4832 2 0.169458 0.665454 0.179257
4833 3 0.162013 0.6932 0.176379
4834 2 0.187573 0.707545 0.174603
2483 2 0.0870858 0.740061 0.186216
2588 2 0.207539 0.764827 0.181979
2590 2 0.250842 0.762507 0.176554
1713 1 0.303572 0.640626 0.129445
1714 1 0.374999 0.640626 0.129445
1715 1 0.446429 0.640626 0.129445
1726 1 0.267857 0.703124 0.129445
1727 1 0.339284 0.703124 0.129445
1728 1 0.410714 0.703124 0.129445
1729 1 0.482144 0.703124 0.129445
1741 1 0.303572 0.765626 0.129445
1742 1 0.374999 0.765626 0.129445
1743 1 0.446429 0.765626 0.129445
3026 2 0.416197 0.633844 0.18299
5624 2 0.344427 0.632441 0.181235
5625 3 0.367522 0.626558 0.175257
5626 2 0.35969 0.639189 0.166577
6553 2 0.281305 0.622113 0.184459
3015 3 0.290329 0.794279 0.179117
1751 1 0.0535709 0.828127 0.129445
1752 1 0.124998 0.828127 0.129445
1753 1 0.196428 0.828127 0.129445
1765 1 0.017856 0.890625 0.129445
1766 1 0.0892858 0.890625 0.129445
1767 1 0.160713 0.890625 0.129445
1768 1 0.232143 0.890625 0.129445
1779 1 0.0535709 0.953126 0.129445
1780 1 0.124998 0.953126 0.129445
1781 1 0.196428 0.953126 0.129445
6488 2 0.123149 0.874363 0.182533
3016 2 0.316476 0.801076 0.174944
1754 1 0.267857 0.828127 0.129445
1755 1 0.339284 0.828127 0.129445
1756 1 0.410714 0.828127 0.129445
1757 1 0.482144 0.828127 0.129445
1769 1 0.303572 0.890625 0.129445
1770 1 0.374999 0.890625 0.129445
1771 1 0.446429 0.890625 0.129445
1782 1 0.267857 0.953126 0.129445
1783 1 0.339284 0.953126 0.129445
1784 1 0.410714 0.953126 0.129445
1785 1 0.482144 0.953126 0.129445
3874 2 0.496482 0.853179 0.184134
3560 2 0.187029 0.130988 0.221863
3561 3 0.186828 0.106273 0.227538
3562 2 0.158439 0.105364 0.230472
4427 2 0.235751 0.186855 0.246174
4958 2 0.205205 0.101029 0.243002
5741 2 0.18487 0.1905 0.205979
5742 3 0.176173 0.174921 0.21401
5743 2 0.147914 0.167066 0.212372
7262 2 0.103072 0.130305 0.223001
7263 3 0.10238 0.144353 0.214167
7264 2 0.0751935 0.139619 0.210454
7292 2 0.106662 0.131727 0.24492
7293 3 0.113248 0.10954 0.238559
7294 2 0.119034 0.0866343 0.244722
2156 2 0.220563 0.0700276 0.223664
2157 3 0.242234 0.0497471 0.222591
2158 2 0.230912 0.0238017 0.225873
4295 2 0.425071 0.130835 0.190745
4442 2 0.277298 0.103518 0.192881
4443 3 0.298207 0.120511 0.197174
4444 2 0.314881 0.130229 0.189557
5165 2 0.305845 0.1038 0.2132
5166 3 0.309259 0.092206 0.222352
5167 2 0.28629 0.0732038 0.222754
4428 3 0.264144 0.187644 0.249107
2050 2 0.413639 0.125001 0.230727
2067 3 0.291834 0.111329 0.248603
2068 2 0.30243 0.10406 0.23958
3098 2 0.393013 0.178704 0.198423
3099 3 0.38096 0.181073 0.207529
4429 2 0.273488 0.159156 0.249322
6752 2 0.360167 0.0974219 0.220065
6753 3 0.387095 0.107852 0.217661
6754 2 0.381396 0.135183 0.213997
7050 3 0.285581 0.197528 0.205257
7051 2 0.291088 0.168274 0.203995
7232 2 0.473546 0.0931756 0.208169
7233 3 0.451885 0.100039 0.201717
7234 2 0.427903 0.0977041 0.207569
2048 2 0.409702 0.163889 0.239436
2049 3 0.427694 0.140465 0.237875
3658 2 0.457392 0.179185 0.229925
7346 2 0.482766 0.117482 0.188979
2814 3 0.0989294 0.383505 0.20229
3518 2 0.244518 0.260809 0.18758
4856 2 0.1855 0.375395 0.199429
4857 3 0.177593 0.351537 0.204884
6691 2 0.18486 0.323122 0.190095
2188 2 0.186232 0.206748 0.226894
1937 2 0.200233 0.311797 0.212802
1938 3 0.213645 0.286738 0.215954
1939 2 0.241044 0.295175 0.218609
2186 2 0.198809 0.25138 0.226846
2187 3 0.192058 0.22926 0.233212
2327 2 0.112738 0.269701 0.243036
2328 3 0.122215 0.242858 0.246177
2329 2 0.147202 0.23855 0.24096
2813 2 0.10235 0.368992 0.193612
4256 2 0.0785315 0.383744 0.218411
4257 3 0.0652782 0.382456 0.227351
4258 2 0.0362488 0.383193 0.225236
4275 3 0.216376 0.227304 0.197683
4276 2 0.212478 0.249969 0.204107
4324 2 0.217445 0.260894 0.244615
4858 2 0.149714 0.359138 0.207237
5102 2 0.122001 0.335856 0.244399
5103 3 0.104602 0.318334 0.238774
5104 2 0.0875319 0.338489 0.234094
5214 3 0.246224 0.399042 0.218117
5215 2 0.236451 0.382546 0.225796
5454 3 0.220341 0.358691 0.23947
5455 2 0.19332 0.363436 0.243316
5453 2 0.225689 0.330083 0.241906
4274 2 0.241839 0.214515 0.20058
4323 3 0.230624 0.284461 0.248937
2027 2 0.441197 0.293614 0.190308
2028 3 0.466833 0.308677 0.190913
3843 3 0.28525 0.345252 0.200926
3844 2 0.274429 0.325354 0.194384
4667 2 0.329775 0.345001 0.189667
5489 2 0.312559 0.218692 0.192811
6137 2 0.380477 0.296503 0.188777
6138 3 0.393081 0.270305 0.191193
6139 2 0.371312 0.252196 0.188043
6768 3 0.386257 0.393125 0.207375
6769 2 0.395015 0.36576 0.21024
4942 2 0.493514 0.378355 0.238262
4941 3 0.485128 0.383465 0.228821
6984 3 0.309749 0.21955 0.229467
6985 2 0.292977 0.209645 0.237033
7049 2 0.296217 0.204036 0.214339
2029 2 0.487906 0.287529 0.191167
3842 2 0.291738 0.328115 0.208841
5213 2 0.255516 0.379241 0.211282
3064 2 0.497918 0.335552 0.202194
3100 2 0.389843 0.207553 0.211168
3476 2 0.301378 0.307189 0.231872
3477 3 0.292389 0.297384 0.222918
3478 2 0.299197 0.268285 0.223803
3650 2 0.396886 0.230961 0.232199
3651 3 0.38513 0.210768 0.238451
3652 2 0.385572 0.223354 0.247528
3656 2 0.453401 0.221417 0.222209
3657 3 0.472566 0.203372 0.226926
5117 2 0.403182 0.336466 0.232124
5118 3 0.420818 0.332142 0.224206
5119 2 0.445192 0.348015 0.226384
6179 2 0.350996 0.327988 0.247999
6180 3 0.374145 0.345411 0.245631
6625 2 0.352009 0.389559 0.240848
6983 2 0.337429 0.213667 0.232526
7186 2 0.251155 0.389717 0.248262
7322 2 0.298981 0.398883 0.200294
7403 2 0.406598 0.260808 0.20707
7404 3 0.413401 0.254797 0.216597
7405 2 0.417718 0.282768 0.219923
6767 2 0.39337 0.395541 0.197699
2240 2 0.146252 0.532476 0.19625
2241 3 0.152969 0.546939 0.187784
2815 2 0.0979501 0.41161 0.198792
7463 2 0.0697239 0.408344 0.244455
2381 2 0.188011 0.45357 0.229924
2382 3 0.198845 0.462038 0.22105
2383 2 0.217623 0.439746 0.218836
2597 2 0.214685 0.508891 0.219287
2598 3 0.22415 0.537308 0.218804
2599 2 0.237385 0.538142 0.209855
3653 2 0.102772 0.509513 0.242031
3654 3 0.125063 0.509068 0.235421
3655 2 0.140076 0.484746 0.23839
3972 3 0.101721 0.455802 0.190282
3973 2 0.111492 0.473679 0.197611
4709 2 0.152631 0.553471 0.235492
4710 3 0.171566 0.576175 0.234016
4711 2 0.190499 0.563825 0.2275
5894 2 0.12712 0.507651 0.218018
5895 3 0.137656 0.49984 0.209037
5896 2 0.161081 0.483414 0.211846
6758 2 0.15504 0.414855 0.24613
6759 3 0.164098 0.443198 0.244883
2337 3 0.268779 0.534425 0.196436
2338 2 0.277896 0.511891 0.190586
5063 2 0.476847 0.532041 0.18887
3941 2 0.479063 0.594875 0.190033
6933 3 0.468839 0.546398 0.232489
3942 3 0.498742 0.574931 0.193495
7184 2 0.294481 0.406584 0.248315
6932 2 0.478354 0.570101 0.227255
7323 3 0.314979 0.424173 0.200135
7324 2 0.341689 0.41482 0.203212
3437 2 0.289417 0.506059 0.234126
3438 3 0.272742 0.523594 0.239989
3439 2 0.253 0.533257 0.233244
2300 2 0.393099 0.552702 0.189768
2336 2 0.292477 0.539568 0.202219
2576 2 0.383758 0.572047 0.237585
2577 3 0.38374 0.554089 0.245598
2963 2 0.302318 0.455741 0.187468
3137 2 0.388272 0.502976 0.245688
3138 3 0.391214 0.473218 0.246551
3139 2 0.406488 0.464624 0.238466
4640 2 0.465584 0.494927 0.203629
4641 3 0.471078 0.491067 0.213372
4642 2 0.450038 0.472315 0.216662
4793 2 0.306762 0.457541 0.214525
4794 3 0.313094 0.473001 0.222828
4795 2 0.320418 0.450716 0.229058
5585 2 0.329211 0.519947 0.217271
5586 3 0.329595 0.546959 0.212911
5587 2 0.357805 0.552475 0.210367
6608 2 0.481148 0.518708 0.247285
6623 2 0.357637 0.436045 0.243014
6624 3 0.337539 0.415691 0.240139
6934 2 0.468686 0.525441 0.225329
7166 2 0.406486 0.423072 0.218745
7167 3 0.424147 0.437508 0.22519
7168 2 0.444439 0.416709 0.227502
7259 2 0.461902 0.577652 0.246323
2756 2 0.418206 0.594869 0.199713
2757 3 0.402289 0.575317 0.205087
2758 2 0.401353 0.588988 0.213984
3280 2 0.304531 0.590815 0.215665
2484 3 0.114163 0.739703 0.190331
3675 3 0.248421 0.700213 0.198632
6000 3 0.17555 0.79058 0.192576
3919 2 0.0784005 0.714849 0.244357
2896 2 0.122403 0.758156 0.243097
2110 2 0.215207 0.724726 0.234453
2571 3 0.112594 0.629009 0.240807
2572 2 0.135001 0.61051 0.23854
2762 2 0.223057 0.649354 0.231098
2763 3 0.23566 0.626961 0.236231
2764 2 0.212579 0.608455 0.237514
2894 2 0.16689 0.767306 0.238702
2895 3 0.13859 0.773196 0.236373
3674 2 0.240439 0.714101 0.190184
4990 2 0.239812 0.745157 0.207096
5100 3 0.179731 0.621157 0.188377
5101 2 0.173747 0.628673 0.197846
5870 2 0.178335 0.694546 0.219096
5871 3 0.205784 0.685134 0.22129
5872 2 0.220879 0.688471 0.212749
5999 2 0.151763 0.772666 0.192039
6164 2 0.125891 0.728083 0.206501
6165 3 0.135069 0.718863 0.215502
6166 2 0.134136 0.742855 0.221504
7073 2 0.0926685 0.696824 0.223247
7074 3 0.0717443 0.688503 0.229783
7075 2 0.0828289 0.662827 0.233377
4989 3 0.232207 0.771732 0.210978
2108 2 0.22528 0.766145 0.228518
2109 3 0.218357 0.75336 0.237261
4988 2 0.210187 0.781045 0.205025
3676 2 0.26892 0.680777 0.195397
3027 3 0.440134 0.627273 0.188494
3028 2 0.458239 0.651048 0.188125
6031 2 0.387947 0.736835 0.206454
6551 2 0.297114 0.630042 0.199097
6552 3 0.299728 0.639714 0.189671
6289 2 0.33771 0.798742 0.20628
6566 2 0.488915 0.637215 0.218599
6288 3 0.364377 0.785879 0.207317
7282 2 0.490804 0.799622 0.21432
4501 2 0.482904 0.684948 0.206752
2918 2 0.413392 0.631544 0.232666
2919 3 0.392173 0.616227 0.227875
2920 2 0.371521 0.637406 0.226495
2930 2 0.275761 0.645768 0.244637
2931 3 0.302601 0.654463 0.247799
3278 2 0.27049 0.616142 0.22256
3279 3 0.291681 0.617879 0.215575
4100 2 0.429719 0.685275 0.246451
4101 3 0.44327 0.664171 0.240994
4102 2 0.457242 0.678589 0.233591
4499 2 0.443811 0.696377 0.21357
4500 3 0.471493 0.688081 0.215925
6567 3 0.49724 0.608406 0.218796
4759 2 0.38298 0.731694 0.246753
5260 2 0.341159 0.785613 0.244051
5996 2 0.361896 0.76788 0.223168
5997 3 0.360809 0.754771 0.232156
5998 2 0.350655 0.727511 0.229738
6029 2 0.375051 0.696147 0.213307
6030 3 0.398328 0.709842 0.209087
6518 2 0.319627 0.660633 0.219739
6519 3 0.337755 0.677708 0.225254
6520 2 0.326626 0.671578 0.234299
5771 2 0.403254 0.795454 0.233532
6489 3 0.133049 0.859467 0.19055
6490 2 0.108375 0.853362 0.195736
6001 2 0.163243 0.817732 0.191564
6182 2 0.0416764 0.837939 0.207167
6183 3 0.0702856 0.844382 0.205533
6184 2 0.0831195 0.844307 0.214552
1793 2 0.124585 0.81829 0.230944
1794 3 0.116552 0.846206 0.228452
1795 2 0.111875 0.859631 0.237257
2093 2 0.163833 0.872338 0.203941
2094 3 0.177663 0.875607 0.212725
2095 2 0.157028 0.866126 0.219189
2887 2 0.226539 0.880819 0.214729
5936 2 0.384633 0.864582 0.237438
2885 2 0.257668 0.914235 0.211173
2428 2 0.282801 0.846787 0.208634
3014 2 0.291463 0.805794 0.188344
6350 2 0.496543 0.842486 0.249391
7606 2 0.309264 0.883874 0.240906
5773 2 0.440976 0.818433 0.23933
7150 2 0.424172 0.867033 0.19248
5938 2 0.352049 0.850933 0.247445
6055 2 0.470442 0.931451 0.187738
6351 3 0.479134 0.818163 0.249299
7148 2 0.43572 0.835758 0.203267
6287 2 0.382077 0.80645 0.203128
2426 2 0.270624 0.802187 0.208027
3872 2 0.496049 0.823752 0.196124
7604 2 0.270718 0.882304 0.231787
5772 3 0.419842 0.820093 0.232324
7149 3 0.413609 0.842421 0.196967
7605 3 0.279705 0.881111 0.24131
6054 3 0.472522 0.902993 0.190842
6053 2 0.490279 0.904012 0.198852
2427 3 0.292394 0.820522 0.205026
5937 3 0.362129 0.875565 0.242846
7280 2 0.456071 0.824919 0.220497
7281 3 0.476208 0.82553 0.213147
2886 3 0.255635 0.886763 0.215144
2054 2 0.217847 0.048568 0.302085
2055 3 0.246127 0.0519498 0.304937
2477 2 0.133544 0.0806716 0.297996
2478 3 0.112438 0.101635 0.29887
2479 2 0.10051 0.102247 0.289714
2609 2 0.191395 0.167489 0.28452
2610 3 0.185618 0.194484 0.288438
3473 2 0.183025 0.0790615 0.285739
3474 3 0.175424 0.0550365 0.291161
3475 2 0.170631 0.0327093 0.284674
3626 2 0.20514 0.115073 0.268092
3627 3 0.204594 0.121629 0.277849
3628 2 0.23189 0.113412 0.280695
4745 2 0.110004 0.0839159 0.267396
4746 3 0.0929159 0.102449 0.272763
4747 2 0.0892373 0.126457 0.266889
4865 2 0.158887 0.177018 0.302934
4866 3 0.140355 0.167325 0.310052
4867 2 0.128648 0.142497 0.306044
4959 3 0.213978 0.0969223 0.252458
3988 2 0.171265 0.0692153 0.256192
5765 2 0.108251 0.182729 0.264925
3986 2 0.148163 0.0325388 0.262381
5766 3 0.0999828 0.16955 0.256382
3987 3 0.143846 0.0582929 0.257453
4960 2 0.243551 0.0984653 0.251647
5767 2 0.101747 0.193464 0.250367
2056 2 0.258743 0.0640365 0.296828
2283 3 0.497025 0.108882 0.281782
2284 2 0.47819 0.10297 0.274303
2405 2 0.318365 0.167901 0.309583
2406 3 0.306909 0.154784 0.301457
2407 2 0.292166 0.177659 0.297297
2507 2 0.447568 0.19402 0.268525
3114 3 0.442631 0.097375 0.260659
4181 2 0.486884 0.153344 0.289709
4182 3 0.479714 0.17897 0.294324
4183 2 0.466242 0.169116 0.302611
5501 2 0.394059 0.150459 0.279041
5502 3 0.406894 0.163155 0.271075
5503 2 0.420363 0.139347 0.267007
5939 2 0.29031 0.117873 0.290279
5940 3 0.277406 0.0969009 0.284594
5941 2 0.298426 0.088656 0.278082
6269 2 0.380493 0.104903 0.29815
6270 3 0.370479 0.119516 0.290092
6271 2 0.34863 0.135696 0.294199
6614 2 0.355673 0.0954611 0.275559
6615 3 0.341339 0.081961 0.268043
6616 2 0.359785 0.0596397 0.26556
2127 3 0.398409 0.0250279 0.262892
3115 2 0.427932 0.0713975 0.259863
3113 2 0.440059 0.110449 0.251699
2128 2 0.415962 0.0137988 0.27004
2066 2 0.311646 0.100361 0.255098
2611 2 0.165261 0.205804 0.282206
5179 2 0.236177 0.209891 0.290878
2171 2 0.122858 0.255335 0.277272
2993 2 0.207685 0.320117 0.276368
2994 3 0.187798 0.311108 0.269572
2995 2 0.164073 0.304825 0.275215
3554 2 0.109448 0.331585 0.281404
3555 3 0.11894 0.303919 0.283607
3556 2 0.115936 0.301556 0.293525
4322 2 0.214552 0.290033 0.25714
5181 3 0.123653 0.286732 0.310547
6005 2 0.0861484 0.394753 0.269127
6006 3 0.103682 0.381695 0.275928
7364 2 0.16797 0.278606 0.302583
7365 3 0.194359 0.271746 0.298598
7366 2 0.190768 0.243502 0.295434
7613 2 0.132821 0.374833 0.261295
7615 2 0.166826 0.344944 0.259781
3134 2 0.23892 0.384718 0.28349
3770 2 0.222284 0.3116 0.29378
3771 3 0.23653 0.334174 0.289258
2173 2 0.128982 0.237388 0.263075
2172 3 0.131009 0.229885 0.272734