ITEM: TIMESTEP
0
ITEM: NUMBER OF ATOMS
7792
ITEM: BOX BOUNDS pp pp pp
-1.6829100000000000e+01 1.6829100000000000e+01
-1.6656500000000001e+01 1.6656500000000001e+01
-5.0000000000000000e+01 5.0000000000000000e+01
ITEM: ATOMS id type xsu ysu zsu
897 1 0.017856 0.0156241 0.070555
898 1 0.0892858 0.0156241 0.070555
899 1 0.160713 0.0156241 0.070555
911 1 0.0535709 0.0781252 0.070555
912 1 0.124998 0.0781252 0.070555
913 1 0.196428 0.0781252 0.070555
925 1 0.017856 0.140623 0.070555
926 1 0.0892858 0.140623 0.070555
927 1 0.160713 0.140623 0.070555
1121 1 0.0535709 0.0364568 0.090185
1122 1 0.124998 0.0364568 0.090185
1123 1 0.196428 0.0364568 0.090185
1135 1 0.017856 0.0989579 0.090185
1136 1 0.0892858 0.0989579 0.090185
1137 1 0.160713 0.0989579 0.090185
1149 1 0.0535709 0.161459 0.090185
1150 1 0.124998 0.161459 0.090185
1151 1 0.196428 0.161459 0.090185
1345 1 0.017856 0.0572895 0.109815
1346 1 0.0892858 0.0572895 0.109815
1347 1 0.160713 0.0572895 0.109815
1359 1 0.0535709 0.119791 0.109815
1360 1 0.124998 0.119791 0.109815
1361 1 0.196428 0.119791 0.109815
1373 1 0.017856 0.182292 0.109815
1374 1 0.0892858 0.182292 0.109815
1375 1 0.160713 0.182292 0.109815
900 1 0.232143 0.0156241 0.070555
901 1 0.303572 0.0156241 0.070555
902 1 0.374999 0.0156241 0.070555
914 1 0.267857 0.0781252 0.070555
915 1 0.339284 0.0781252 0.070555
928 1 0.232143 0.140623 0.070555
929 1 0.303572 0.140623 0.070555
930 1 0.374999 0.140623 0.070555
1124 1 0.267857 0.0364568 0.090185
1125 1 0.339284 0.0364568 0.090185
1138 1 0.232143 0.0989579 0.090185
1139 1 0.303572 0.0989579 0.090185
1140 1 0.374999 0.0989579 0.090185
1152 1 0.267857 0.161459 0.090185
1153 1 0.339284 0.161459 0.090185
1348 1 0.232143 0.0572895 0.109815
1349 1 0.303572 0.0572895 0.109815
1350 1 0.374999 0.0572895 0.109815
1362 1 0.267857 0.119791 0.109815
1363 1 0.339284 0.119791 0.109815
1376 1 0.232143 0.182292 0.109815
1377 1 0.303572 0.182292 0.109815
1378 1 0.374999 0.182292 0.109815
903 1 0.446429 0.0156241 0.070555
904 1 0.517856 0.0156241 0.070555
905 1 0.589286 0.0156241 0.070555
916 1 0.410714 0.0781252 0.070555
917 1 0.482144 0.0781252 0.070555
918 1 0.553571 0.0781252 0.070555
931 1 0.446429 0.140623 0.070555
932 1 0.517856 0.140623 0.070555
933 1 0.589286 0.140623 0.070555
1126 1 0.410714 0.0364568 0.090185
1127 1 0.482144 0.0364568 0.090185
1128 1 0.553571 0.0364568 0.090185
1141 1 0.446429 0.0989579 0.090185
1142 1 0.517856 0.0989579 0.090185
1143 1 0.589286 0.0989579 0.090185
1154 1 0.410714 0.161459 0.090185
1155 1 0.482144 0.161459 0.090185
1156 1 0.553571 0.161459 0.090185
1351 1 0.446429 0.0572895 0.109815
1352 1 0.517856 0.0572895 0.109815
1353 1 0.589286 0.0572895 0.109815
1364 1 0.410714 0.119791 0.109815
1365 1 0.482144 0.119791 0.109815
1366 1 0.553571 0.119791 0.109815
1379 1 0.446429 0.182292 0.109815
1380 1 0.517856 0.182292 0.109815
1381 1 0.589286 0.182292 0.109815
906 1 0.660716 0.0156241 0.070555
907 1 0.732143 0.0156241 0.070555
919 1 0.625001 0.0781252 0.070555
920 1 0.696428 0.0781252 0.070555
921 1 0.767857 0.0781252 0.070555
934 1 0.660716 0.140623 0.070555
935 1 0.732143 0.140623 0.070555
1129 1 0.625001 0.0364568 0.090185
1130 1 0.696428 0.0364568 0.090185
1131 1 0.767857 0.0364568 0.090185
1144 1 0.660716 0.0989579 0.090185
1145 1 0.732143 0.0989579 0.090185
1157 1 0.625001 0.161459 0.090185
1158 1 0.696428 0.161459 0.090185
1159 1 0.767857 0.161459 0.090185
1354 1 0.660716 0.0572895 0.109815
1355 1 0.732143 0.0572895 0.109815
1367 1 0.625001 0.119791 0.109815
1368 1 0.696428 0.119791 0.109815
1369 1 0.767857 0.119791 0.109815
1382 1 0.660716 0.182292 0.109815
1383 1 0.732143 0.182292 0.109815
908 1 0.803572 0.0156241 0.070555
909 1 0.875002 0.0156241 0.070555
910 1 0.946429 0.0156241 0.070555
922 1 0.839287 0.0781252 0.070555
923 1 0.910714 0.0781252 0.070555
924 1 0.982144 0.0781252 0.070555
936 1 0.803572 0.140623 0.070555
937 1 0.875002 0.140623 0.070555
938 1 0.946429 0.140623 0.070555
1132 1 0.839287 0.0364568 0.090185
1133 1 0.910714 0.0364568 0.090185
1134 1 0.982144 0.0364568 0.090185
1146 1 0.803572 0.0989579 0.090185
1147 1 0.875002 0.0989579 0.090185
1148 1 0.946429 0.0989579 0.090185
1160 1 0.839287 0.161459 0.090185
1161 1 0.910714 0.161459 0.090185
1162 1 0.982144 0.161459 0.090185
1356 1 0.803572 0.0572895 0.109815
1357 1 0.875002 0.0572895 0.109815
1358 1 0.946429 0.0572895 0.109815
1370 1 0.839287 0.119791 0.109815
1371 1 0.910714 0.119791 0.109815
1372 1 0.982144 0.119791 0.109815
1384 1 0.803572 0.182292 0.109815
1385 1 0.875002 0.182292 0.109815
1386 1 0.946429 0.182292 0.109815
939 1 0.0535709 0.203124 0.070555
940 1 0.124998 0.203124 0.070555
941 1 0.196428 0.203124 0.070555
953 1 0.017856 0.265626 0.070555
954 1 0.0892858 0.265626 0.070555
955 1 0.160713 0.265626 0.070555
967 1 0.0535709 0.328124 0.070555
968 1 0.124998 0.328124 0.070555
969 1 0.196428 0.328124 0.070555
981 1 0.017856 0.390625 0.070555
982 1 0.0892858 0.390625 0.070555
983 1 0.160713 0.390625 0.070555
1163 1 0.017856 0.223957 0.090185
1164 1 0.0892858 0.223957 0.090185
1165 1 0.160713 0.223957 0.090185
1177 1 0.0535709 0.286458 0.090185
1178 1 0.124998 0.286458 0.090185
1179 1 0.196428 0.286458 0.090185
1191 1 0.017856 0.348959 0.090185
1192 1 0.0892858 0.348959 0.090185
1193 1 0.160713 0.348959 0.090185
1387 1 0.0535709 0.24479 0.109815
1388 1 0.124998 0.24479 0.109815
1389 1 0.196428 0.24479 0.109815
1401 1 0.017856 0.307291 0.109815
1402 1 0.0892858 0.307291 0.109815
1403 1 0.160713 0.307291 0.109815
1415 1 0.0535709 0.369792 0.109815
1416 1 0.124998 0.369792 0.109815
1417 1 0.196428 0.369792 0.109815
942 1 0.267857 0.203124 0.070555
943 1 0.339284 0.203124 0.070555
956 1 0.232143 0.265626 0.070555
957 1 0.303572 0.265626 0.070555
958 1 0.374999 0.265626 0.070555
970 1 0.267857 0.328124 0.070555
971 1 0.339284 0.328124 0.070555
984 1 0.232143 0.390625 0.070555
985 1 0.303572 0.390625 0.070555
986 1 0.374999 0.390625 0.070555
1166 1 0.232143 0.223957 0.090185
1167 1 0.303572 0.223957 0.090185
1168 1 0.374999 0.223957 0.090185
1180 1 0.267857 0.286458 0.090185
1181 1 0.339284 0.286458 0.090185
1194 1 0.232143 0.348959 0.090185
1195 1 0.303572 0.348959 0.090185
1196 1 0.374999 0.348959 0.090185
1390 1 0.267857 0.24479 0.109815
1391 1 0.339284 0.24479 0.109815
1404 1 0.232143 0.307291 0.109815
1405 1 0.303572 0.307291 0.109815
1406 1 0.374999 0.307291 0.109815
1418 1 0.267857 0.369792 0.109815
1419 1 0.339284 0.369792 0.109815
944 1 0.410714 0.203124 0.070555
945 1 0.482144 0.203124 0.070555
946 1 0.553571 0.203124 0.070555
959 1 0.446429 0.265626 0.070555
960 1 0.517856 0.265626 0.070555
961 1 0.589286 0.265626 0.070555
972 1 0.410714 0.328124 0.070555
973 1 0.482144 0.328124 0.070555
974 1 0.553571 0.328124 0.070555
987 1 0.446429 0.390625 0.070555
988 1 0.517856 0.390625 0.070555
989 1 0.589286 0.390625 0.070555
1169 1 0.446429 0.223957 0.090185
1170 1 0.517856 0.223957 0.090185
1171 1 0.589286 0.223957 0.090185
1182 1 0.410714 0.286458 0.090185
1183 1 0.482144 0.286458 0.090185
1184 1 0.553571 0.286458 0.090185
1197 1 0.446429 0.348959 0.090185
1198 1 0.517856 0.348959 0.090185
1199 1 0.589286 0.348959 0.090185
1392 1 0.410714 0.24479 0.109815
1393 1 0.482144 0.24479 0.109815
1394 1 0.553571 0.24479 0.109815
1407 1 0.446429 0.307291 0.109815
1408 1 0.517856 0.307291 0.109815
1409 1 0.589286 0.307291 0.109815
1420 1 0.410714 0.369792 0.109815
1421 1 0.482144 0.369792 0.109815
1422 1 0.553571 0.369792 0.109815
947 1 0.625001 0.203124 0.070555
948 1 0.696428 0.203124 0.070555
949 1 0.767857 0.203124 0.070555
962 1 0.660716 0.265626 0.070555
963 1 0.732143 0.265626 0.070555
975 1 0.625001 0.328124 0.070555
976 1 0.696428 0.328124 0.070555
977 1 0.767857 0.328124 0.070555
990 1 0.660716 0.390625 0.070555
991 1 0.732143 0.390625 0.070555
1172 1 0.660716 0.223957 0.090185
1173 1 0.732143 0.223957 0.090185
1185 1 0.625001 0.286458 0.090185
1186 1 0.696428 0.286458 0.090185
1187 1 0.767857 0.286458 0.090185
1200 1 0.660716 0.348959 0.090185
1201 1 0.732143 0.348959 0.090185
1395 1 0.625001 0.24479 0.109815
1396 1 0.696428 0.24479 0.109815
1397 1 0.767857 0.24479 0.109815
1410 1 0.660716 0.307291 0.109815
1411 1 0.732143 0.307291 0.109815
1423 1 0.625001 0.369792 0.109815
1424 1 0.696428 0.369792 0.109815
1425 1 0.767857 0.369792 0.109815
950 1 0.839287 0.203124 0.070555
951 1 0.910714 0.203124 0.070555
952 1 0.982144 0.203124 0.070555
964 1 0.803572 0.265626 0.070555
965 1 0.875002 0.265626 0.070555
966 1 0.946429 0.265626 0.070555
978 1 0.839287 0.328124 0.070555
979 1 0.910714 0.328124 0.070555
980 1 0.982144 0.328124 0.070555
992 1 0.803572 0.390625 0.070555
993 1 0.875002 0.390625 0.070555
994 1 0.946429 0.390625 0.070555
1174 1 0.803572 0.223957 0.090185
1175 1 0.875002 0.223957 0.090185
1176 1 0.946429 0.223957 0.090185
1188 1 0.839287 0.286458 0.090185
1189 1 0.910714 0.286458 0.090185
1190 1 0.982144 0.286458 0.090185
1202 1 0.803572 0.348959 0.090185
1203 1 0.875002 0.348959 0.090185
1204 1 0.946429 0.348959 0.090185
1398 1 0.839287 0.24479 0.109815
1399 1 0.910714 0.24479 0.109815
1400 1 0.982144 0.24479 0.109815
1412 1 0.803572 0.307291 0.109815
1413 1 0.875002 0.307291 0.109815
1414 1 0.946429 0.307291 0.109815
1426 1 0.839287 0.369792 0.109815
1427 1 0.910714 0.369792 0.109815
1428 1 0.982144 0.369792 0.109815
995 1 0.0535709 0.453126 0.070555
996 1 0.124998 0.453126 0.070555
997 1 0.196428 0.453126 0.070555
1009 1 0.017856 0.515624 0.070555
1010 1 0.0892858 0.515624 0.070555
1011 1 0.160713 0.515624 0.070555
1023 1 0.0535709 0.578125 0.070555
1024 1 0.124998 0.578125 0.070555
1025 1 0.196428 0.578125 0.070555
1205 1 0.0535709 0.411458 0.090185
1206 1 0.124998 0.411458 0.090185
1207 1 0.196428 0.411458 0.090185
1219 1 0.017856 0.473959 0.090185
1220 1 0.0892858 0.473959 0.090185
1221 1 0.160713 0.473959 0.090185
1233 1 0.0535709 0.53646 0.090185
1234 1 0.124998 0.53646 0.090185
1235 1 0.196428 0.53646 0.090185
1247 1 0.017856 0.598958 0.090185
1248 1 0.0892858 0.598958 0.090185
1249 1 0.160713 0.598958 0.090185
1429 1 0.017856 0.43229 0.109815
1430 1 0.0892858 0.43229 0.109815
1431 1 0.160713 0.43229 0.109815
1443 1 0.0535709 0.494791 0.109815
1444 1 0.124998 0.494791 0.109815
1445 1 0.196428 0.494791 0.109815
1457 1 0.017856 0.557292 0.109815
1458 1 0.0892858 0.557292 0.109815
1459 1 0.160713 0.557292 0.109815
998 1 0.267857 0.453126 0.070555
999 1 0.339284 0.453126 0.070555
1012 1 0.232143 0.515624 0.070555
1013 1 0.303572 0.515624 0.070555
1014 1 0.374999 0.515624 0.070555
1026 1 0.267857 0.578125 0.070555
1027 1 0.339284 0.578125 0.070555
1208 1 0.267857 0.411458 0.090185
1209 1 0.339284 0.411458 0.090185
1222 1 0.232143 0.473959 0.090185
1223 1 0.303572 0.473959 0.090185
1224 1 0.374999 0.473959 0.090185
1236 1 0.267857 0.53646 0.090185
1237 1 0.339284 0.53646 0.090185
1250 1 0.232143 0.598958 0.090185
1251 1 0.303572 0.598958 0.090185
1252 1 0.374999 0.598958 0.090185
1432 1 0.232143 0.43229 0.109815
1433 1 0.303572 0.43229 0.109815
1434 1 0.374999 0.43229 0.109815
1446 1 0.267857 0.494791 0.109815
1447 1 0.339284 0.494791 0.109815
1460 1 0.232143 0.557292 0.109815
1461 1 0.303572 0.557292 0.109815
1462 1 0.374999 0.557292 0.109815
1000 1 0.410714 0.453126 0.070555
1001 1 0.482144 0.453126 0.070555
1002 1 0.553571 0.453126 0.070555
1015 1 0.446429 0.515624 0.070555
1016 1 0.517856 0.515624 0.070555
1017 1 0.589286 0.515624 0.070555
1028 1 0.410714 0.578125 0.070555
1029 1 0.482144 0.578125 0.070555
1030 1 0.553571 0.578125 0.070555
1210 1 0.410714 0.411458 0.090185
1211 1 0.482144 0.411458 0.090185
1212 1 0.553571 0.411458 0.090185
1225 1 0.446429 0.473959 0.090185
1226 1 0.517856 0.473959 0.090185
1227 1 0.589286 0.473959 0.090185
1238 1 0.410714 0.53646 0.090185
1239 1 0.482144 0.53646 0.090185
1240 1 0.553571 0.53646 0.090185
1253 1 0.446429 0.598958 0.090185
1254 1 0.517856 0.598958 0.090185
1255 1 0.589286 0.598958 0.090185
1435 1 0.446429 0.43229 0.109815
1436 1 0.517856 0.43229 0.109815
1437 1 0.589286 0.43229 0.109815
1448 1 0.410714 0.494791 0.109815
1449 1 0.482144 0.494791 0.109815
1450 1 0.553571 0.494791 0.109815
1463 1 0.446429 0.557292 0.109815
1464 1 0.517856 0.557292 0.109815
1465 1 0.589286 0.557292 0.109815
1003 1 0.625001 0.453126 0.070555
1004 1 0.696428 0.453126 0.070555
1005 1 0.767857 0.453126 0.070555
1018 1 0.660716 0.515624 0.070555
1019 1 0.732143 0.515624 0.070555
1031 1 0.625001 0.578125 0.070555
1032 1 0.696428 0.578125 0.070555
1033 1 0.767857 0.578125 0.070555
1213 1 0.625001 0.411458 0.090185
1214 1 0.696428 0.411458 0.090185
1215 1 0.767857 0.411458 0.090185
1228 1 0.660716 0.473959 0.090185
1229 1 0.732143 0.473959 0.090185
1241 1 0.625001 0.53646 0.090185
1242 1 0.696428 0.53646 0.090185
1243 1 0.767857 0.53646 0.090185
1256 1 0.660716 0.598958 0.090185
1257 1 0.732143 0.598958 0.090185
1438 1 0.660716 0.43229 0.109815
1439 1 0.732143 0.43229 0.109815
1451 1 0.625001 0.494791 0.109815
1452 1 0.696428 0.494791 0.109815
1453 1 0.767857 0.494791 0.109815
1466 1 0.660716 0.557292 0.109815
1467 1 0.732143 0.557292 0.109815
1006 1 0.839287 0.453126 0.070555
1007 1 0.910714 0.453126 0.070555
1008 1 0.982144 0.453126 0.070555
1020 1 0.803572 0.515624 0.070555
1021 1 0.875002 0.515624 0.070555
1022 1 0.946429 0.515624 0.070555
1034 1 0.839287 0.578125 0.070555
1035 1 0.910714 0.578125 0.070555
1036 1 0.982144 0.578125 0.070555
1216 1 0.839287 0.411458 0.090185
1217 1 0.910714 0.411458 0.090185
1218 1 0.982144 0.411458 0.090185
1230 1 0.803572 0.473959 0.090185
1231 1 0.875002 0.473959 0.090185
1232 1 0.946429 0.473959 0.090185
1244 1 0.839287 0.53646 0.090185
1245 1 0.910714 0.53646 0.090185
1246 1 0.982144 0.53646 0.090185
1258 1 0.803572 0.598958 0.090185
1259 1 0.875002 0.598958 0.090185
1260 1 0.946429 0.598958 0.090185
1440 1 0.803572 0.43229 0.109815
1441 1 0.875002 0.43229 0.109815
1442 1 0.946429 0.43229 0.109815
1454 1 0.839287 0.494791 0.109815
1455 1 0.910714 0.494791 0.109815
1456 1 0.982144 0.494791 0.109815
1468 1 0.803572 0.557292 0.109815
1469 1 0.875002 0.557292 0.109815
1470 1 0.946429 0.557292 0.109815
1037 1 0.017856 0.640626 0.070555
1038 1 0.0892858 0.640626 0.070555
1039 1 0.160713 0.640626 0.070555
1051 1 0.0535709 0.703124 0.070555
1052 1 0.124998 0.703124 0.070555
1053 1 0.196428 0.703124 0.070555
1065 1 0.017856 0.765626 0.070555
1066 1 0.0892858 0.765626 0.070555
1067 1 0.160713 0.765626 0.070555
1261 1 0.0535709 0.661459 0.090185
1262 1 0.124998 0.661459 0.090185
1263 1 0.196428 0.661459 0.090185
1275 1 0.017856 0.72396 0.090185
1276 1 0.0892858 0.72396 0.090185
1277 1 0.160713 0.72396 0.090185
1289 1 0.0535709 0.786458 0.090185
1290 1 0.124998 0.786458 0.090185
1291 1 0.196428 0.786458 0.090185
1471 1 0.0535709 0.619791 0.109815
1472 1 0.124998 0.619791 0.109815
1473 1 0.196428 0.619791 0.109815
1485 1 0.017856 0.682292 0.109815
1486 1 0.0892858 0.682292 0.109815
1487 1 0.160713 0.682292 0.109815
1499 1 0.0535709 0.744793 0.109815
1500 1 0.124998 0.744793 0.109815
1501 1 0.196428 0.744793 0.109815
1040 1 0.232143 0.640626 0.070555
1041 1 0.303572 0.640626 0.070555
1042 1 0.374999 0.640626 0.070555
1054 1 0.267857 0.703124 0.070555
1055 1 0.339284 0.703124 0.070555
1068 1 0.232143 0.765626 0.070555
1069 1 0.303572 0.765626 0.070555
1070 1 0.374999 0.765626 0.070555
1264 1 0.267857 0.661459 0.090185
1265 1 0.339284 0.661459 0.090185
1278 1 0.232143 0.72396 0.090185
1279 1 0.303572 0.72396 0.090185
1280 1 0.374999 0.72396 0.090185
1292 1 0.267857 0.786458 0.090185
1293 1 0.339284 0.786458 0.090185
1474 1 0.267857 0.619791 0.109815
1475 1 0.339284 0.619791 0.109815
1488 1 0.232143 0.682292 0.109815
1489 1 0.303572 0.682292 0.109815
1490 1 0.374999 0.682292 0.109815
1502 1 0.267857 0.744793 0.109815
1503 1 0.339284 0.744793 0.109815
1043 1 0.446429 0.640626 0.070555
1044 1 0.517856 0.640626 0.070555
1045 1 0.589286 0.640626 0.070555
1056 1 0.410714 0.703124 0.070555
1057 1 0.482144 0.703124 0.070555
1058 1 0.553571 0.703124 0.070555
1071 1 0.446429 0.765626 0.070555
1072 1 0.517856 0.765626 0.070555
1073 1 0.589286 0.765626 0.070555
1266 1 0.410714 0.661459 0.090185
1267 1 0.482144 0.661459 0.090185
1268 1 0.553571 0.661459 0.090185
1281 1 0.446429 0.72396 0.090185
1282 1 0.517856 0.72396 0.090185
1283 1 0.589286 0.72396 0.090185
1294 1 0.410714 0.786458 0.090185
1295 1 0.482144 0.786458 0.090185
1296 1 0.553571 0.786458 0.090185
1476 1 0.410714 0.619791 0.109815
1477 1 0.482144 0.619791 0.109815
1478 1 0.553571 0.619791 0.109815
1491 1 0.446429 0.682292 0.109815
1492 1 0.517856 0.682292 0.109815
1493 1 0.589286 0.682292 0.109815
1504 1 0.410714 0.744793 0.109815
1505 1 0.482144 0.744793 0.109815
1506 1 0.553571 0.744793 0.109815
1046 1 0.660716 0.640626 0.070555
1047 1 0.732143 0.640626 0.070555
1059 1 0.625001 0.703124 0.070555
1060 1 0.696428 0.703124 0.070555
1061 1 0.767857 0.703124 0.070555
1074 1 0.660716 0.765626 0.070555
1075 1 0.732143 0.765626 0.070555
1269 1 0.625001 0.661459 0.090185
1270 1 0.696428 0.661459 0.090185
1271 1 0.767857 0.661459 0.090185
1284 1 0.660716 0.72396 0.090185
1285 1 0.732143 0.72396 0.090185
1297 1 0.625001 0.786458 0.090185
1298 1 0.696428 0.786458 0.090185
1299 1 0.767857 0.786458 0.090185
1479 1 0.625001 0.619791 0.109815
1480 1 0.696428 0.619791 0.109815
1481 1 0.767857 0.619791 0.109815
1494 1 0.660716 0.682292 0.109815
1495 1 0.732143 0.682292 0.109815
1507 1 0.625001 0.744793 0.109815
1508 1 0.696428 0.744793 0.109815
1509 1 0.767857 0.744793 0.109815
1048 1 0.803572 0.640626 0.070555
1049 1 0.875002 0.640626 0.070555
1050 1 0.946429 0.640626 0.070555
1062 1 0.839287 0.703124 0.070555
1063 1 0.910714 0.703124 0.070555
1064 1 0.982144 0.703124 0.070555
1076 1 0.803572 0.765626 0.070555
1077 1 0.875002 0.765626 0.070555
1078 1 0.946429 0.765626 0.070555
1272 1 0.839287 0.661459 0.090185
1273 1 0.910714 0.661459 0.090185
1274 1 0.982144 0.661459 0.090185
1286 1 0.803572 0.72396 0.090185
1287 1 0.875002 0.72396 0.090185
1288 1 0.946429 0.72396 0.090185
1300 1 0.839287 0.786458 0.090185
1301 1 0.910714 0.786458 0.090185
1302 1 0.982144 0.786458 0.090185
1482 1 0.839287 0.619791 0.109815
1483 1 0.910714 0.619791 0.109815
1484 1 0.982144 0.619791 0.109815
1496 1 0.803572 0.682292 0.109815
1497 1 0.875002 0.682292 0.109815
1498 1 0.946429 0.682292 0.109815
1510 1 0.839287 0.744793 0.109815
1511 1 0.910714 0.744793 0.109815
1512 1 0.982144 0.744793 0.109815
1079 1 0.0535709 0.828127 0.070555
1080 1 0.124998 0.828127 0.070555
1081 1 0.196428 0.828127 0.070555
1093 1 0.017856 0.890625 0.070555
1094 1 0.0892858 0.890625 0.070555
1095 1 0.160713 0.890625 0.070555
1107 1 0.0535709 0.953126 0.070555
1108 1 0.124998 0.953126 0.070555
1109 1 0.196428 0.953126 0.070555
1303 1 0.017856 0.848959 0.090185
1304 1 0.0892858 0.848959 0.090185
1305 1 0.160713 0.848959 0.090185
1317 1 0.0535709 0.911461 0.090185
1318 1 0.124998 0.911461 0.090185
1319 1 0.196428 0.911461 0.090185
1331 1 0.017856 0.973959 0.090185
1332 1 0.0892858 0.973959 0.090185
1333 1 0.160713 0.973959 0.090185
1513 1 0.017856 0.807291 0.109815
1514 1 0.0892858 0.807291 0.109815
1515 1 0.160713 0.807291 0.109815
1527 1 0.0535709 0.869792 0.109815
1528 1 0.124998 0.869792 0.109815
1529 1 0.196428 0.869792 0.109815
1541 1 0.017856 0.932293 0.109815
1542 1 0.0892858 0.932293 0.109815
1543 1 0.160713 0.932293 0.109815
1555 1 0.0535709 0.994791 0.109815
1556 1 0.124998 0.994791 0.109815
1557 1 0.196428 0.994791 0.109815
1082 1 0.267857 0.828127 0.070555
1083 1 0.339284 0.828127 0.070555
1096 1 0.232143 0.890625 0.070555
1097 1 0.303572 0.890625 0.070555
1098 1 0.374999 0.890625 0.070555
1110 1 0.267857 0.953126 0.070555
1111 1 0.339284 0.953126 0.070555
1306 1 0.232143 0.848959 0.090185
1307 1 0.303572 0.848959 0.090185
1308 1 0.374999 0.848959 0.090185
1320 1 0.267857 0.911461 0.090185
1321 1 0.339284 0.911461 0.090185
1334 1 0.232143 0.973959 0.090185
1335 1 0.303572 0.973959 0.090185
1336 1 0.374999 0.973959 0.090185
1516 1 0.232143 0.807291 0.109815
1517 1 0.303572 0.807291 0.109815
1518 1 0.374999 0.807291 0.109815
1530 1 0.267857 0.869792 0.109815
1531 1 0.339284 0.869792 0.109815
1544 1 0.232143 0.932293 0.109815
1545 1 0.303572 0.932293 0.109815
1546 1 0.374999 0.932293 0.109815
1558 1 0.267857 0.994791 0.109815
1559 1 0.339284 0.994791 0.109815
1084 1 0.410714 0.828127 0.070555
1085 1 0.482144 0.828127 0.070555
1086 1 0.553571 0.828127 0.070555
1099 1 0.446429 0.890625 0.070555
1100 1 0.517856 0.890625 0.070555
1101 1 0.589286 0.890625 0.070555
1112 1 0.410714 0.953126 0.070555
1113 1 0.482144 0.953126 0.070555
1114 1 0.553571 0.953126 0.070555
1309 1 0.446429 0.848959 0.090185
1310 1 0.517856 0.848959 0.090185
1311 1 0.589286 0.848959 0.090185
1322 1 0.410714 0.911461 0.090185
1323 1 0.482144 0.911461 0.090185
1324 1 0.553571 0.911461 0.090185
1337 1 0.446429 0.973959 0.090185
1338 1 0.517856 0.973959 0.090185
1339 1 0.589286 0.973959 0.090185
1519 1 0.446429 0.807291 0.109815
1520 1 0.517856 0.807291 0.109815
1521 1 0.589286 0.807291 0.109815
1532 1 0.410714 0.869792 0.109815
1533 1 0.482144 0.869792 0.109815
1534 1 0.553571 0.869792 0.109815
1547 1 0.446429 0.932293 0.109815
1548 1 0.517856 0.932293 0.109815
1549 1 0.589286 0.932293 0.109815
1560 1 0.410714 0.994791 0.109815
1561 1 0.482144 0.994791 0.109815
1562 1 0.553571 0.994791 0.109815
1087 1 0.625001 0.828127 0.070555
1088 1 0.696428 0.828127 0.070555
1089 1 0.767857 0.828127 0.070555
1102 1 0.660716 0.890625 0.070555
1103 1 0.732143 0.890625 0.070555
1115 1 0.625001 0.953126 0.070555
1116 1 0.696428 0.953126 0.070555
1117 1 0.767857 0.953126 0.070555
1312 1 0.660716 0.848959 0.090185
1313 1 0.732143 0.848959 0.090185
1325 1 0.625001 0.911461 0.090185
1326 1 0.696428 0.911461 0.090185
1327 1 0.767857 0.911461 0.090185
1340 1 0.660716 0.973959 0.090185
1341 1 0.732143 0.973959 0.090185
1522 1 0.660716 0.807291 0.109815
1523 1 0.732143 0.807291 0.109815
1535 1 0.625001 0.869792 0.109815
1536 1 0.696428 0.869792 0.109815
1537 1 0.767857 0.869792 0.109815
1550 1 0.660716 0.932293 0.109815
1551 1 0.732143 0.932293 0.109815
1563 1 0.625001 0.994791 0.109815
1564 1 0.696428 0.994791 0.109815
1565 1 0.767857 0.994791 0.109815
1090 1 0.839287 0.828127 0.070555
1091 1 0.910714 0.828127 0.070555
1092 1 0.982144 0.828127 0.070555
1104 1 0.803572 0.890625 0.070555
1105 1 0.875002 0.890625 0.070555
1106 1 0.946429 0.890625 0.070555
1118 1 0.839287 0.953126 0.070555
1119 1 0.910714 0.953126 0.070555
1120 1 0.982144 0.953126 0.070555
1314 1 0.803572 0.848959 0.090185
1315 1 0.875002 0.848959 0.090185
1316 1 0.946429 0.848959 0.090185
1328 1 0.839287 0.911461 0.090185
1329 1 0.910714 0.911461 0.090185
1330 1 0.982144 0.911461 0.090185
1342 1 0.803572 0.973959 0.090185
1343 1 0.875002 0.973959 0.090185
1344 1 0.946429 0.973959 0.090185
1524 1 0.803572 0.807291 0.109815
1525 1 0.875002 0.807291 0.109815
1526 1 0.946429 0.807291 0.109815
1538 1 0.839287 0.869792 0.109815
1539 1 0.910714 0.869792 0.109815
1540 1 0.982144 0.869792 0.109815
1552 1 0.803572 0.932293 0.109815
1553 1 0.875002 0.932293 0.109815
1554 1 0.946429 0.932293 0.109815
1566 1 0.839287 0.994791 0.109815
1567 1 0.910714 0.994791 0.109815
1568 1 0.982144 0.994791 0.109815
1569 1 0.017856 0.0156241 0.129445
1570 1 0.0892858 0.0156241 0.129445
1571 1 0.160713 0.0156241 0.129445
1583 1 0.0535709 0.0781252 0.129445
1584 1 0.124998 0.0781252 0.129445
1585 1 0.196428 0.0781252 0.129445
1597 1 0.017856 0.140623 0.129445
1598 1 0.0892858 0.140623 0.129445
1599 1 0.160713 0.140623 0.129445
1572 1 0.232143 0.0156241 0.129445
1573 1 0.303572 0.0156241 0.129445
1574 1 0.374999 0.0156241 0.129445
1586 1 0.267857 0.0781252 0.129445
1587 1 0.339284 0.0781252 0.129445
1600 1 0.232143 0.140623 0.129445
1601 1 0.303572 0.140623 0.129445
1602 1 0.374999 0.140623 0.129445
7058 2 0.364307 0.152444 0.179214
7059 3 0.335951 0.151692 0.17624
7060 2 0.337253 0.144186 0.166568
1575 1 0.446429 0.0156241 0.129445
1576 1 0.517856 0.0156241 0.129445
1577 1 0.589286 0.0156241 0.129445
1588 1 0.410714 0.0781252 0.129445
1589 1 0.482144 0.0781252 0.129445
1590 1 0.553571 0.0781252 0.129445
1603 1 0.446429 0.140623 0.129445
1604 1 0.517856 0.140623 0.129445
1605 1 0.589286 0.140623 0.129445
4296 3 0.41084 0.155621 0.184579
4297 2 0.43587 0.162459 0.179697
7347 3 0.491515 0.135187 0.181419
7348 2 0.505884 0.113751 0.176357
1578 1 0.660716 0.0156241 0.129445
1579 1 0.732143 0.0156241 0.129445
1591 1 0.625001 0.0781252 0.129445
1592 1 0.696428 0.0781252 0.129445
1593 1 0.767857 0.0781252 0.129445
1606 1 0.660716 0.140623 0.129445
1607 1 0.732143 0.140623 0.129445
4247 2 0.710351 0.0615321 0.184401
4248 3 0.734131 0.0662084 0.178613
4262 2 0.7281 0.0995324 0.166868
4263 3 0.726272 0.123363 0.160818
4264 2 0.719095 0.111971 0.151887
6650 2 0.667485 0.164858 0.181148
6651 3 0.690682 0.178864 0.176992
6652 2 0.700988 0.159973 0.170038
4226 2 0.791813 0.134777 0.180475
4227 3 0.795976 0.150285 0.172028
4228 2 0.772642 0.141951 0.166496
4249 2 0.755625 0.0743109 0.184967
1580 1 0.803572 0.0156241 0.129445
1581 1 0.875002 0.0156241 0.129445
1582 1 0.946429 0.0156241 0.129445
1594 1 0.839287 0.0781252 0.129445
1595 1 0.910714 0.0781252 0.129445
1596 1 0.982144 0.0781252 0.129445
1608 1 0.803572 0.140623 0.129445
1609 1 0.875002 0.140623 0.129445
1610 1 0.946429 0.140623 0.129445
6011 2 0.844991 0.154651 0.178039
6012 3 0.87088 0.153869 0.182938
6013 2 0.89174 0.148739 0.176025
1611 1 0.0535709 0.203124 0.129445
1612 1 0.124998 0.203124 0.129445
1613 1 0.196428 0.203124 0.129445
1625 1 0.017856 0.265626 0.129445
1626 1 0.0892858 0.265626 0.129445
1627 1 0.160713 0.265626 0.129445
1639 1 0.0535709 0.328124 0.129445
1640 1 0.124998 0.328124 0.129445
1641 1 0.196428 0.328124 0.129445
1653 1 0.017856 0.390625 0.129445
1654 1 0.0892858 0.390625 0.129445
1655 1 0.160713 0.390625 0.129445
6371 2 0.149289 0.337655 0.169276
6372 3 0.127913 0.357728 0.167399
6373 2 0.116243 0.349262 0.158646
6690 3 0.187497 0.311233 0.175168
6691 2 0.18253 0.322004 0.184351
7396 2 0.164982 0.393053 0.173231
2813 2 0.103544 0.374433 0.18287
6689 2 0.216352 0.30411 0.175381
1614 1 0.267857 0.203124 0.129445
1615 1 0.339284 0.203124 0.129445
1628 1 0.232143 0.265626 0.129445
1629 1 0.303572 0.265626 0.129445
1630 1 0.374999 0.265626 0.129445
1642 1 0.267857 0.328124 0.129445
1643 1 0.339284 0.328124 0.129445
1656 1 0.232143 0.390625 0.129445
1657 1 0.303572 0.390625 0.129445
1658 1 0.374999 0.390625 0.129445
3519 3 0.262879 0.286683 0.183779
3520 2 0.287074 0.270195 0.181905
4668 3 0.358234 0.338312 0.184874
4669 2 0.369856 0.364143 0.18161
5490 3 0.324648 0.229554 0.184959
5491 2 0.327227 0.203089 0.180321
1616 1 0.410714 0.203124 0.129445
1617 1 0.482144 0.203124 0.129445
1618 1 0.553571 0.203124 0.129445
1631 1 0.446429 0.265626 0.129445
1632 1 0.517856 0.265626 0.129445
1633 1 0.589286 0.265626 0.129445
1644 1 0.410714 0.328124 0.129445
1645 1 0.482144 0.328124 0.129445
1646 1 0.553571 0.328124 0.129445
1659 1 0.446429 0.390625 0.129445
1660 1 0.517856 0.390625 0.129445
1661 1 0.589286 0.390625 0.129445
2795 2 0.468378 0.351745 0.180222
2796 3 0.471589 0.378601 0.175887
5679 3 0.550833 0.388312 0.185637
7235 2 0.600215 0.381028 0.182425
2431 2 0.425846 0.399936 0.177388
2797 2 0.500879 0.383597 0.176094
2078 2 0.79015 0.201199 0.168053
1619 1 0.625001 0.203124 0.129445
1620 1 0.696428 0.203124 0.129445
1621 1 0.767857 0.203124 0.129445
1634 1 0.660716 0.265626 0.129445
1635 1 0.732143 0.265626 0.129445
1647 1 0.625001 0.328124 0.129445
1648 1 0.696428 0.328124 0.129445
1649 1 0.767857 0.328124 0.129445
1662 1 0.660716 0.390625 0.129445
1663 1 0.732143 0.390625 0.129445
3314 2 0.751651 0.39774 0.183334
5189 2 0.743091 0.249916 0.171731
5190 3 0.718396 0.256406 0.176853
5191 2 0.705174 0.229525 0.176819
7226 2 0.709511 0.341251 0.181067
7227 3 0.709032 0.368708 0.185106
7228 2 0.680562 0.376456 0.183876
7236 3 0.629815 0.378543 0.182176
7237 2 0.633788 0.34897 0.1811
7238 2 0.674989 0.284279 0.178573
7239 3 0.650428 0.299615 0.180931
7240 2 0.632816 0.278177 0.184653
2079 3 0.784553 0.229332 0.165117
1622 1 0.839287 0.203124 0.129445
1623 1 0.910714 0.203124 0.129445
1624 1 0.982144 0.203124 0.129445
1636 1 0.803572 0.265626 0.129445
1637 1 0.875002 0.265626 0.129445
1638 1 0.946429 0.265626 0.129445
1650 1 0.839287 0.328124 0.129445
1651 1 0.910714 0.328124 0.129445
1652 1 0.982144 0.328124 0.129445
1664 1 0.803572 0.390625 0.129445
1665 1 0.875002 0.390625 0.129445
1666 1 0.946429 0.390625 0.129445
2080 2 0.808027 0.23798 0.159707
7395 3 0.18526 0.408564 0.1784
1667 1 0.0535709 0.453126 0.129445
1668 1 0.124998 0.453126 0.129445
1669 1 0.196428 0.453126 0.129445
1681 1 0.017856 0.515624 0.129445
1682 1 0.0892858 0.515624 0.129445
1683 1 0.160713 0.515624 0.129445
1695 1 0.0535709 0.578125 0.129445
1696 1 0.124998 0.578125 0.129445
1697 1 0.196428 0.578125 0.129445
2242 2 0.112318 0.549476 0.183359
3971 2 0.131241 0.471354 0.176127
5264 2 0.196525 0.495969 0.166987
5265 3 0.171423 0.480445 0.165618
5266 2 0.165551 0.485079 0.155937
7394 2 0.184819 0.435751 0.174163
3972 3 0.109186 0.465267 0.182513
3072 3 0.243517 0.593353 0.182962
7412 2 0.241281 0.548892 0.171263
7413 3 0.238887 0.520712 0.167913
1670 1 0.267857 0.453126 0.129445
1671 1 0.339284 0.453126 0.129445
1684 1 0.232143 0.515624 0.129445
1685 1 0.303572 0.515624 0.129445
1686 1 0.374999 0.515624 0.129445
1698 1 0.267857 0.578125 0.129445
1699 1 0.339284 0.578125 0.129445
2301 3 0.394402 0.550595 0.180473
2429 2 0.392486 0.433508 0.175628
2430 3 0.398375 0.407536 0.180234
2964 3 0.30339 0.481805 0.179919
3221 2 0.383465 0.506394 0.172973
3222 3 0.377562 0.480222 0.168497
3223 2 0.385542 0.484108 0.158952
7414 2 0.262554 0.505948 0.171428
2302 2 0.385883 0.577347 0.176958
2963 2 0.30536 0.459297 0.186502
2965 2 0.328899 0.479231 0.174864
1672 1 0.410714 0.453126 0.129445
1673 1 0.482144 0.453126 0.129445
1674 1 0.553571 0.453126 0.129445
1687 1 0.446429 0.515624 0.129445
1688 1 0.517856 0.515624 0.129445
1689 1 0.589286 0.515624 0.129445
1700 1 0.410714 0.578125 0.129445
1701 1 0.482144 0.578125 0.129445
1702 1 0.553571 0.578125 0.129445
3060 3 0.569955 0.53822 0.18662