created by msxbox

7792 atoms
4000 bonds
2000 angles

3 atom types
1 bond types
1 angle types
-16.8291 16.8291 xlo xhi
-16.6565 16.6565 ylo yhi
-50.0000 50.0000 zlo zhi

Masses

   1   12.011  # C
   2    1.008  # H
   3   15.999  # O

Bond Coeffs

   1   517.630258     1.000000  # Ow-Hw

Angle Coeffs

   1    37.950526   109.470000  # Hw-Ow-Hw

Atoms

      1       1    1   0.000000000000   -16.228100   -16.136016    37.055500  # C0 wall_ff
      2       1    1   0.000000000000   -13.823900   -16.136016    37.055500  # C1 wall_ff
      3       1    1   0.000000000000   -11.419800   -16.136016    37.055500  # C2 wall_ff
      4       1    1   0.000000000000    -9.015600   -16.136016    37.055500  # C3 wall_ff
      5       1    1   0.000000000000    -6.611400   -16.136016    37.055500  # C4 wall_ff
      6       1    1   0.000000000000    -4.207300   -16.136016    37.055500  # C5 wall_ff
      7       1    1   0.000000000000    -1.803100   -16.136016    37.055500  # C6 wall_ff
      8       1    1   0.000000000000     0.601000   -16.136016    37.055500  # C7 wall_ff
      9       1    1   0.000000000000     3.005200   -16.136016    37.055500  # C8 wall_ff
     10       1    1   0.000000000000     5.409400   -16.136016    37.055500  # C9 wall_ff
     11       1    1   0.000000000000     7.813500   -16.136016    37.055500  # C10 wall_ff
     12       1    1   0.000000000000    10.217700   -16.136016    37.055500  # C11 wall_ff
     13       1    1   0.000000000000    12.621900   -16.136016    37.055500  # C12 wall_ff
     14       1    1   0.000000000000    15.026000   -16.136016    37.055500  # C13 wall_ff
     15       1    1   0.000000000000   -15.026000   -14.053916    37.055500  # C14 wall_ff
     16       1    1   0.000000000000   -12.621900   -14.053916    37.055500  # C15 wall_ff
     17       1    1   0.000000000000   -10.217700   -14.053916    37.055500  # C16 wall_ff
     18       1    1   0.000000000000    -7.813500   -14.053916    37.055500  # C17 wall_ff
     19       1    1   0.000000000000    -5.409400   -14.053916    37.055500  # C18 wall_ff
     20       1    1   0.000000000000    -3.005200   -14.053916    37.055500  # C19 wall_ff
     21       1    1   0.000000000000    -0.601000   -14.053916    37.055500  # C20 wall_ff
     22       1    1   0.000000000000     1.803100   -14.053916    37.055500  # C21 wall_ff
     23       1    1   0.000000000000     4.207300   -14.053916    37.055500  # C22 wall_ff
     24       1    1   0.000000000000     6.611400   -14.053916    37.055500  # C23 wall_ff
     25       1    1   0.000000000000     9.015600   -14.053916    37.055500  # C24 wall_ff
     26       1    1   0.000000000000    11.419800   -14.053916    37.055500  # C25 wall_ff
     27       1    1   0.000000000000    13.823900   -14.053916    37.055500  # C26 wall_ff
     28       1    1   0.000000000000    16.228100   -14.053916    37.055500  # C27 wall_ff
     29       1    1   0.000000000000   -16.228100   -11.971916    37.055500  # C28 wall_ff
     30       1    1   0.000000000000   -13.823900   -11.971916    37.055500  # C29 wall_ff
     31       1    1   0.000000000000   -11.419800   -11.971916    37.055500  # C30 wall_ff
     32       1    1   0.000000000000    -9.015600   -11.971916    37.055500  # C31 wall_ff
     33       1    1   0.000000000000    -6.611400   -11.971916    37.055500  # C32 wall_ff
     34       1    1   0.000000000000    -4.207300   -11.971916    37.055500  # C33 wall_ff
     35       1    1   0.000000000000    -1.803100   -11.971916    37.055500  # C34 wall_ff
     36       1    1   0.000000000000     0.601000   -11.971916    37.055500  # C35 wall_ff
     37       1    1   0.000000000000     3.005200   -11.971916    37.055500  # C36 wall_ff
     38       1    1   0.000000000000     5.409400   -11.971916    37.055500  # C37 wall_ff
     39       1    1   0.000000000000     7.813500   -11.971916    37.055500  # C38 wall_ff
     40       1    1   0.000000000000    10.217700   -11.971916    37.055500  # C39 wall_ff
     41       1    1   0.000000000000    12.621900   -11.971916    37.055500  # C40 wall_ff
     42       1    1   0.000000000000    15.026000   -11.971916    37.055500  # C41 wall_ff
     43       1    1   0.000000000000   -15.026000    -9.889816    37.055500  # C42 wall_ff
     44       1    1   0.000000000000   -12.621900    -9.889816    37.055500  # C43 wall_ff
     45       1    1   0.000000000000   -10.217700    -9.889816    37.055500  # C44 wall_ff
     46       1    1   0.000000000000    -7.813500    -9.889816    37.055500  # C45 wall_ff
     47       1    1   0.000000000000    -5.409400    -9.889816    37.055500  # C46 wall_ff
     48       1    1   0.000000000000    -3.005200    -9.889816    37.055500  # C47 wall_ff
     49       1    1   0.000000000000    -0.601000    -9.889816    37.055500  # C48 wall_ff
     50       1    1   0.000000000000     1.803100    -9.889816    37.055500  # C49 wall_ff
     51       1    1   0.000000000000     4.207300    -9.889816    37.055500  # C50 wall_ff
     52       1    1   0.000000000000     6.611400    -9.889816    37.055500  # C51 wall_ff
     53       1    1   0.000000000000     9.015600    -9.889816    37.055500  # C52 wall_ff
     54       1    1   0.000000000000    11.419800    -9.889816    37.055500  # C53 wall_ff
     55       1    1   0.000000000000    13.823900    -9.889816    37.055500  # C54 wall_ff
     56       1    1   0.000000000000    16.228100    -9.889816    37.055500  # C55 wall_ff
     57       1    1   0.000000000000   -16.228100    -7.807716    37.055500  # C56 wall_ff
     58       1    1   0.000000000000   -13.823900    -7.807716    37.055500  # C57 wall_ff
     59       1    1   0.000000000000   -11.419800    -7.807716    37.055500  # C58 wall_ff
     60       1    1   0.000000000000    -9.015600    -7.807716    37.055500  # C59 wall_ff
     61       1    1   0.000000000000    -6.611400    -7.807716    37.055500  # C60 wall_ff
     62       1    1   0.000000000000    -4.207300    -7.807716    37.055500  # C61 wall_ff
     63       1    1   0.000000000000    -1.803100    -7.807716    37.055500  # C62 wall_ff
     64       1    1   0.000000000000     0.601000    -7.807716    37.055500  # C63 wall_ff
     65       1    1   0.000000000000     3.005200    -7.807716    37.055500  # C64 wall_ff
     66       1    1   0.000000000000     5.409400    -7.807716    37.055500  # C65 wall_ff
     67       1    1   0.000000000000     7.813500    -7.807716    37.055500  # C66 wall_ff
     68       1    1   0.000000000000    10.217700    -7.807716    37.055500  # C67 wall_ff
     69       1    1   0.000000000000    12.621900    -7.807716    37.055500  # C68 wall_ff
     70       1    1   0.000000000000    15.026000    -7.807716    37.055500  # C69 wall_ff
     71       1    1   0.000000000000   -15.026000    -5.725716    37.055500  # C70 wall_ff
     72       1    1   0.000000000000   -12.621900    -5.725716    37.055500  # C71 wall_ff
     73       1    1   0.000000000000   -10.217700    -5.725716    37.055500  # C72 wall_ff
     74       1    1   0.000000000000    -7.813500    -5.725716    37.055500  # C73 wall_ff
     75       1    1   0.000000000000    -5.409400    -5.725716    37.055500  # C74 wall_ff
     76       1    1   0.000000000000    -3.005200    -5.725716    37.055500  # C75 wall_ff
     77       1    1   0.000000000000    -0.601000    -5.725716    37.055500  # C76 wall_ff
     78       1    1   0.000000000000     1.803100    -5.725716    37.055500  # C77 wall_ff
     79       1    1   0.000000000000     4.207300    -5.725716    37.055500  # C78 wall_ff
     80       1    1   0.000000000000     6.611400    -5.725716    37.055500  # C79 wall_ff
     81       1    1   0.000000000000     9.015600    -5.725716    37.055500  # C80 wall_ff
     82       1    1   0.000000000000    11.419800    -5.725716    37.055500  # C81 wall_ff
     83       1    1   0.000000000000    13.823900    -5.725716    37.055500  # C82 wall_ff
     84       1    1   0.000000000000    16.228100    -5.725716    37.055500  # C83 wall_ff
     85       1    1   0.000000000000   -16.228100    -3.643616    37.055500  # C84 wall_ff
     86       1    1   0.000000000000   -13.823900    -3.643616    37.055500  # C85 wall_ff
     87       1    1   0.000000000000   -11.419800    -3.643616    37.055500  # C86 wall_ff
     88       1    1   0.000000000000    -9.015600    -3.643616    37.055500  # C87 wall_ff
     89       1    1   0.000000000000    -6.611400    -3.643616    37.055500  # C88 wall_ff
     90       1    1   0.000000000000    -4.207300    -3.643616    37.055500  # C89 wall_ff
     91       1    1   0.000000000000    -1.803100    -3.643616    37.055500  # C90 wall_ff
     92       1    1   0.000000000000     0.601000    -3.643616    37.055500  # C91 wall_ff
     93       1    1   0.000000000000     3.005200    -3.643616    37.055500  # C92 wall_ff
     94       1    1   0.000000000000     5.409400    -3.643616    37.055500  # C93 wall_ff
     95       1    1   0.000000000000     7.813500    -3.643616    37.055500  # C94 wall_ff
     96       1    1   0.000000000000    10.217700    -3.643616    37.055500  # C95 wall_ff
     97       1    1   0.000000000000    12.621900    -3.643616    37.055500  # C96 wall_ff
     98       1    1   0.000000000000    15.026000    -3.643616    37.055500  # C97 wall_ff
     99       1    1   0.000000000000   -15.026000    -1.561516    37.055500  # C98 wall_ff
    100       1    1   0.000000000000   -12.621900    -1.561516    37.055500  # C99 wall_ff
    101       1    1   0.000000000000   -10.217700    -1.561516    37.055500  # C100 wall_ff
    102       1    1   0.000000000000    -7.813500    -1.561516    37.055500  # C101 wall_ff
    103       1    1   0.000000000000    -5.409400    -1.561516    37.055500  # C102 wall_ff
    104       1    1   0.000000000000    -3.005200    -1.561516    37.055500  # C103 wall_ff
    105       1    1   0.000000000000    -0.601000    -1.561516    37.055500  # C104 wall_ff
    106       1    1   0.000000000000     1.803100    -1.561516    37.055500  # C105 wall_ff
    107       1    1   0.000000000000     4.207300    -1.561516    37.055500  # C106 wall_ff
    108       1    1   0.000000000000     6.611400    -1.561516    37.055500  # C107 wall_ff
    109       1    1   0.000000000000     9.015600    -1.561516    37.055500  # C108 wall_ff
    110       1    1   0.000000000000    11.419800    -1.561516    37.055500  # C109 wall_ff
    111       1    1   0.000000000000    13.823900    -1.561516    37.055500  # C110 wall_ff
    112       1    1   0.000000000000    16.228100    -1.561516    37.055500  # C111 wall_ff
    113       1    1   0.000000000000   -16.228100     0.520484    37.055500  # C112 wall_ff
    114       1    1   0.000000000000   -13.823900     0.520484    37.055500  # C113 wall_ff
    115       1    1   0.000000000000   -11.419800     0.520484    37.055500  # C114 wall_ff
    116       1    1   0.000000000000    -9.015600     0.520484    37.055500  # C115 wall_ff
    117       1    1   0.000000000000    -6.611400     0.520484    37.055500  # C116 wall_ff
    118       1    1   0.000000000000    -4.207300     0.520484    37.055500  # C117 wall_ff
    119       1    1   0.000000000000    -1.803100     0.520484    37.055500  # C118 wall_ff
    120       1    1   0.000000000000     0.601000     0.520484    37.055500  # C119 wall_ff
    121       1    1   0.000000000000     3.005200     0.520484    37.055500  # C120 wall_ff
    122       1    1   0.000000000000     5.409400     0.520484    37.055500  # C121 wall_ff
    123       1    1   0.000000000000     7.813500     0.520484    37.055500  # C122 wall_ff
    124       1    1   0.000000000000    10.217700     0.520484    37.055500  # C123 wall_ff
    125       1    1   0.000000000000    12.621900     0.520484    37.055500  # C124 wall_ff
    126       1    1   0.000000000000    15.026000     0.520484    37.055500  # C125 wall_ff
    127       1    1   0.000000000000   -15.026000     2.602584    37.055500  # C126 wall_ff
    128       1    1   0.000000000000   -12.621900     2.602584    37.055500  # C127 wall_ff
    129       1    1   0.000000000000   -10.217700     2.602584    37.055500  # C128 wall_ff
    130       1    1   0.000000000000    -7.813500     2.602584    37.055500  # C129 wall_ff
    131       1    1   0.000000000000    -5.409400     2.602584    37.055500  # C130 wall_ff
    132       1    1   0.000000000000    -3.005200     2.602584    37.055500  # C131 wall_ff
    133       1    1   0.000000000000    -0.601000     2.602584    37.055500  # C132 wall_ff
    134       1    1   0.000000000000     1.803100     2.602584    37.055500  # C133 wall_ff
    135       1    1   0.000000000000     4.207300     2.602584    37.055500  # C134 wall_ff
    136       1    1   0.000000000000     6.611400     2.602584    37.055500  # C135 wall_ff
    137       1    1   0.000000000000     9.015600     2.602584    37.055500  # C136 wall_ff
    138       1    1   0.000000000000    11.419800     2.602584    37.055500  # C137 wall_ff
    139       1    1   0.000000000000    13.823900     2.602584    37.055500  # C138 wall_ff
    140       1    1   0.000000000000    16.228100     2.602584    37.055500  # C139 wall_ff
    141       1    1   0.000000000000   -16.228100     4.684684    37.055500  # C140 wall_ff
    142       1    1   0.000000000000   -13.823900     4.684684    37.055500  # C141 wall_ff
    143       1    1   0.000000000000   -11.419800     4.684684    37.055500  # C142 wall_ff
    144       1    1   0.000000000000    -9.015600     4.684684    37.055500  # C143 wall_ff
    145       1    1   0.000000000000    -6.611400     4.684684    37.055500  # C144 wall_ff
    146       1    1   0.000000000000    -4.207300     4.684684    37.055500  # C145 wall_ff
    147       1    1   0.000000000000    -1.803100     4.684684    37.055500  # C146 wall_ff
    148       1    1   0.000000000000     0.601000     4.684684    37.055500  # C147 wall_ff
    149       1    1   0.000000000000     3.005200     4.684684    37.055500  # C148 wall_ff
    150       1    1   0.000000000000     5.409400     4.684684    37.055500  # C149 wall_ff
    151       1    1   0.000000000000     7.813500     4.684684    37.055500  # C150 wall_ff
    152       1    1   0.000000000000    10.217700     4.684684    37.055500  # C151 wall_ff
    153       1    1   0.000000000000    12.621900     4.684684    37.055500  # C152 wall_ff
    154       1    1   0.000000000000    15.026000     4.684684    37.055500  # C153 wall_ff
    155       1    1   0.000000000000   -15.026000     6.766684    37.055500  # C154 wall_ff
    156       1    1   0.000000000000   -12.621900     6.766684    37.055500  # C155 wall_ff
    157       1    1   0.000000000000   -10.217700     6.766684    37.055500  # C156 wall_ff
    158       1    1   0.000000000000    -7.813500     6.766684    37.055500  # C157 wall_ff
    159       1    1   0.000000000000    -5.409400     6.766684    37.055500  # C158 wall_ff
    160       1    1   0.000000000000    -3.005200     6.766684    37.055500  # C159 wall_ff
    161       1    1   0.000000000000    -0.601000     6.766684    37.055500  # C160 wall_ff
    162       1    1   0.000000000000     1.803100     6.766684    37.055500  # C161 wall_ff
    163       1    1   0.000000000000     4.207300     6.766684    37.055500  # C162 wall_ff
    164       1    1   0.000000000000     6.611400     6.766684    37.055500  # C163 wall_ff
    165       1    1   0.000000000000     9.015600     6.766684    37.055500  # C164 wall_ff
    166       1    1   0.000000000000    11.419800     6.766684    37.055500  # C165 wall_ff
    167       1    1   0.000000000000    13.823900     6.766684    37.055500  # C166 wall_ff
    168       1    1   0.000000000000    16.228100     6.766684    37.055500  # C167 wall_ff
    169       1    1   0.000000000000   -16.228100     8.848784    37.055500  # C168 wall_ff
    170       1    1   0.000000000000   -13.823900     8.848784    37.055500  # C169 wall_ff
    171       1    1   0.000000000000   -11.419800     8.848784    37.055500  # C170 wall_ff
    172       1    1   0.000000000000    -9.015600     8.848784    37.055500  # C171 wall_ff
    173       1    1   0.000000000000    -6.611400     8.848784    37.055500  # C172 wall_ff
    174       1    1   0.000000000000    -4.207300     8.848784    37.055500  # C173 wall_ff
    175       1    1   0.000000000000    -1.803100     8.848784    37.055500  # C174 wall_ff
    176       1    1   0.000000000000     0.601000     8.848784    37.055500  # C175 wall_ff
    177       1    1   0.000000000000     3.005200     8.848784    37.055500  # C176 wall_ff
    178       1    1   0.000000000000     5.409400     8.848784    37.055500  # C177 wall_ff
    179       1    1   0.000000000000     7.813500     8.848784    37.055500  # C178 wall_ff
    180       1    1   0.000000000000    10.217700     8.848784    37.055500  # C179 wall_ff
    181       1    1   0.000000000000    12.621900     8.848784    37.055500  # C180 wall_ff
    182       1    1   0.000000000000    15.026000     8.848784    37.055500  # C181 wall_ff
    183       1    1   0.000000000000   -15.026000    10.930884    37.055500  # C182 wall_ff
    184       1    1   0.000000000000   -12.621900    10.930884    37.055500  # C183 wall_ff
    185       1    1   0.000000000000   -10.217700    10.930884    37.055500  # C184 wall_ff
    186       1    1   0.000000000000    -7.813500    10.930884    37.055500  # C185 wall_ff
    187       1    1   0.000000000000    -5.409400    10.930884    37.055500  # C186 wall_ff
    188       1    1   0.000000000000    -3.005200    10.930884    37.055500  # C187 wall_ff
    189       1    1   0.000000000000    -0.601000    10.930884    37.055500  # C188 wall_ff
    190       1    1   0.000000000000     1.803100    10.930884    37.055500  # C189 wall_ff
    191       1    1   0.000000000000     4.207300    10.930884    37.055500  # C190 wall_ff
    192       1    1   0.000000000000     6.611400    10.930884    37.055500  # C191 wall_ff
    193       1    1   0.000000000000     9.015600    10.930884    37.055500  # C192 wall_ff
    194       1    1   0.000000000000    11.419800    10.930884    37.055500  # C193 wall_ff
    195       1    1   0.000000000000    13.823900    10.930884    37.055500  # C194 wall_ff
    196       1    1   0.000000000000    16.228100    10.930884    37.055500  # C195 wall_ff
    197       1    1   0.000000000000   -16.228100    13.012884    37.055500  # C196 wall_ff
    198       1    1   0.000000000000   -13.823900    13.012884    37.055500  # C197 wall_ff
    199       1    1   0.000000000000   -11.419800    13.012884    37.055500  # C198 wall_ff
    200       1    1   0.000000000000    -9.015600    13.012884    37.055500  # C199 wall_ff
    201       1    1   0.000000000000    -6.611400    13.012884    37.055500  # C200 wall_ff
    202       1    1   0.000000000000    -4.207300    13.012884    37.055500  # C201 wall_ff
    203       1    1   0.000000000000    -1.803100    13.012884    37.055500  # C202 wall_ff
    204       1    1   0.000000000000     0.601000    13.012884    37.055500  # C203 wall_ff
    205       1    1   0.000000000000     3.005200    13.012884    37.055500  # C204 wall_ff
    206       1    1   0.000000000000     5.409400    13.012884    37.055500  # C205 wall_ff
    207       1    1   0.000000000000     7.813500    13.012884    37.055500  # C206 wall_ff
    208       1    1   0.000000000000    10.217700    13.012884    37.055500  # C207 wall_ff
    209       1    1   0.000000000000    12.621900    13.012884    37.055500  # C208 wall_ff
    210       1    1   0.000000000000    15.026000    13.012884    37.055500  # C209 wall_ff
    211       1    1   0.000000000000   -15.026000    15.094984    37.055500  # C210 wall_ff
    212       1    1   0.000000000000   -12.621900    15.094984    37.055500  # C211 wall_ff
    213       1    1   0.000000000000   -10.217700    15.094984    37.055500  # C212 wall_ff
    214       1    1   0.000000000000    -7.813500    15.094984    37.055500  # C213 wall_ff
    215       1    1   0.000000000000    -5.409400    15.094984    37.055500  # C214 wall_ff
    216       1    1   0.000000000000    -3.005200    15.094984    37.055500  # C215 wall_ff
    217       1    1   0.000000000000    -0.601000    15.094984    37.055500  # C216 wall_ff
    218       1    1   0.000000000000     1.803100    15.094984    37.055500  # C217 wall_ff
    219       1    1   0.000000000000     4.207300    15.094984    37.055500  # C218 wall_ff
    220       1    1   0.000000000000     6.611400    15.094984    37.055500  # C219 wall_ff
    221       1    1   0.000000000000     9.015600    15.094984    37.055500  # C220 wall_ff
    222       1    1   0.000000000000    11.419800    15.094984    37.055500  # C221 wall_ff
    223       1    1   0.000000000000    13.823900    15.094984    37.055500  # C222 wall_ff
    224       1    1   0.000000000000    16.228100    15.094984    37.055500  # C223 wall_ff
    225       1    1   0.000000000000   -15.026000   -15.442016    39.018500  # C224 wall_ff
    226       1    1   0.000000000000   -12.621900   -15.442016    39.018500  # C225 wall_ff
    227       1    1   0.000000000000   -10.217700   -15.442016    39.018500  # C226 wall_ff
    228       1    1   0.000000000000    -7.813500   -15.442016    39.018500  # C227 wall_ff
    229       1    1   0.000000000000    -5.409400   -15.442016    39.018500  # C228 wall_ff
    230       1    1   0.000000000000    -3.005200   -15.442016    39.018500  # C229 wall_ff
    231       1    1   0.000000000000    -0.601000   -15.442016    39.018500  # C230 wall_ff
    232       1    1   0.000000000000     1.803100   -15.442016    39.018500  # C231 wall_ff
    233       1    1   0.000000000000     4.207300   -15.442016    39.018500  # C232 wall_ff
    234       1    1   0.000000000000     6.611400   -15.442016    39.018500  # C233 wall_ff
    235       1    1   0.000000000000     9.015600   -15.442016    39.018500  # C234 wall_ff
    236       1    1   0.000000000000    11.419800   -15.442016    39.018500  # C235 wall_ff
    237       1    1   0.000000000000    13.823900   -15.442016    39.018500  # C236 wall_ff
    238       1    1   0.000000000000    16.228100   -15.442016    39.018500  # C237 wall_ff
    239       1    1   0.000000000000   -16.228100   -13.359916    39.018500  # C238 wall_ff
    240       1    1   0.000000000000   -13.823900   -13.359916    39.018500  # C239 wall_ff
    241       1    1   0.000000000000   -11.419800   -13.359916    39.018500  # C240 wall_ff
    242       1    1   0.000000000000    -9.015600   -13.359916    39.018500  # C241 wall_ff
    243       1    1   0.000000000000    -6.611400   -13.359916    39.018500  # C242 wall_ff
    244       1    1   0.000000000000    -4.207300   -13.359916    39.018500  # C243 wall_ff
    245       1    1   0.000000000000    -1.803100   -13.359916    39.018500  # C244 wall_ff
    246       1    1   0.000000000000     0.601000   -13.359916    39.018500  # C245 wall_ff
    247       1    1   0.000000000000     3.005200   -13.359916    39.018500  # C246 wall_ff
    248       1    1   0.000000000000     5.409400   -13.359916    39.018500  # C247 wall_ff
    249       1    1   0.000000000000     7.813500   -13.359916    39.018500  # C248 wall_ff
    250       1    1   0.000000000000    10.217700   -13.359916    39.018500  # C249 wall_ff
    251       1    1   0.000000000000    12.621900   -13.359916    39.018500  # C250 wall_ff
    252       1    1   0.000000000000    15.026000   -13.359916    39.018500  # C251 wall_ff
    253       1    1   0.000000000000   -15.026000   -11.277816    39.018500  # C252 wall_ff
    254       1    1   0.000000000000   -12.621900   -11.277816    39.018500  # C253 wall_ff
    255       1    1   0.000000000000   -10.217700   -11.277816    39.018500  # C254 wall_ff
    256       1    1   0.000000000000    -7.813500   -11.277816    39.018500  # C255 wall_ff
    257       1    1   0.000000000000    -5.409400   -11.277816    39.018500  # C256 wall_ff
    258       1    1   0.000000000000    -3.005200   -11.277816    39.018500  # C257 wall_ff
    259       1    1   0.000000000000    -0.601000   -11.277816    39.018500  # C258 wall_ff
    260       1    1   0.000000000000     1.803100   -11.277816    39.018500  # C259 wall_ff
    261       1    1   0.000000000000     4.207300   -11.277816    39.018500  # C260 wall_ff
    262       1    1   0.000000000000     6.611400   -11.277816    39.018500  # C261 wall_ff
    263       1    1   0.000000000000     9.015600   -11.277816    39.018500  # C262 wall_ff
    264       1    1   0.000000000000    11.419800   -11.277816    39.018500  # C263 wall_ff
    265       1    1   0.000000000000    13.823900   -11.277816    39.018500  # C264 wall_ff
    266       1    1   0.000000000000    16.228100   -11.277816    39.018500  # C265 wall_ff
    267       1    1   0.000000000000   -16.228100    -9.195816    39.018500  # C266 wall_ff
    268       1    1   0.000000000000   -13.823900    -9.195816    39.018500  # C267 wall_ff
    269       1    1   0.000000000000   -11.419800    -9.195816    39.018500  # C268 wall_ff
    270       1    1   0.000000000000    -9.015600    -9.195816    39.018500  # C269 wall_ff
    271       1    1   0.000000000000    -6.611400    -9.195816    39.018500  # C270 wall_ff
    272       1    1   0.000000000000    -4.207300    -9.195816    39.018500  # C271 wall_ff
    273       1    1   0.000000000000    -1.803100    -9.195816    39.018500  # C272 wall_ff
    274       1    1   0.000000000000     0.601000    -9.195816    39.018500  # C273 wall_ff
    275       1    1   0.000000000000     3.005200    -9.195816    39.018500  # C274 wall_ff
    276       1    1   0.000000000000     5.409400    -9.195816    39.018500  # C275 wall_ff
    277       1    1   0.000000000000     7.813500    -9.195816    39.018500  # C276 wall_ff
    278       1    1   0.000000000000    10.217700    -9.195816    39.018500  # C277 wall_ff
    279       1    1   0.000000000000    12.621900    -9.195816    39.018500  # C278 wall_ff
    280       1    1   0.000000000000    15.026000    -9.195816    39.018500  # C279 wall_ff
    281       1    1   0.000000000000   -15.026000    -7.113716    39.018500  # C280 wall_ff
    282       1    1   0.000000000000   -12.621900    -7.113716    39.018500  # C281 wall_ff
    283       1    1   0.000000000000   -10.217700    -7.113716    39.018500  # C282 wall_ff
    284       1    1   0.000000000000    -7.813500    -7.113716    39.018500  # C283 wall_ff
    285       1    1   0.000000000000    -5.409400    -7.113716    39.018500  # C284 wall_ff
    286       1    1   0.000000000000    -3.005200    -7.113716    39.018500  # C285 wall_ff
    287       1    1   0.000000000000    -0.601000    -7.113716    39.018500  # C286 wall_ff
    288       1    1   0.000000000000     1.803100    -7.113716    39.018500  # C287 wall_ff
    289       1    1   0.000000000000     4.207300    -7.113716    39.018500  # C288 wall_ff
    290       1    1   0.000000000000     6.611400    -7.113716    39.018500  # C289 wall_ff
    291       1    1   0.000000000000     9.015600    -7.113716    39.018500  # C290 wall_ff
    292       1    1   0.000000000000    11.419800    -7.113716    39.018500  # C291 wall_ff
    293       1    1   0.000000000000    13.823900    -7.113716    39.018500  # C292 wall_ff
    294       1    1   0.000000000000    16.228100    -7.113716    39.018500  # C293 wall_ff
    295       1    1   0.000000000000   -16.228100    -5.031616    39.018500  # C294 wall_ff
    296       1    1   0.000000000000   -13.823900    -5.031616    39.018500  # C295 wall_ff
    297       1    1   0.000000000000   -11.419800    -5.031616    39.018500  # C296 wall_ff
    298       1    1   0.000000000000    -9.015600    -5.031616    39.018500  # C297 wall_ff
    299       1    1   0.000000000000    -6.611400    -5.031616    39.018500  # C298 wall_ff
    300       1    1   0.000000000000    -4.207300    -5.031616    39.018500  # C299 wall_ff
    301       1    1   0.000000000000    -1.803100    -5.031616    39.018500  # C300 wall_ff
    302       1    1   0.000000000000     0.601000    -5.031616    39.018500  # C301 wall_ff
    303       1    1   0.000000000000     3.005200    -5.031616    39.018500  # C302 wall_ff
    304       1    1   0.000000000000     5.409400    -5.031616    39.018500  # C303 wall_ff
    305       1    1   0.000000000000     7.813500    -5.031616    39.018500  # C304 wall_ff
    306       1    1   0.000000000000    10.217700    -5.031616    39.018500  # C305 wall_ff
    307       1    1   0.000000000000    12.621900    -5.031616    39.018500  # C306 wall_ff
    308       1    1   0.000000000000    15.026000    -5.031616    39.018500  # C307 wall_ff
    309       1    1   0.000000000000   -15.026000    -2.949616    39.018500  # C308 wall_ff
    310       1    1   0.000000000000   -12.621900    -2.949616    39.018500  # C309 wall_ff
    311       1    1   0.000000000000   -10.217700    -2.949616    39.018500  # C310 wall_ff
    312       1    1   0.000000000000    -7.813500    -2.949616    39.018500  # C311 wall_ff
    313       1    1   0.000000000000    -5.409400    -2.949616    39.018500  # C312 wall_ff
    314       1    1   0.000000000000    -3.005200    -2.949616    39.018500  # C313 wall_ff
    315       1    1   0.000000000000    -0.601000    -2.949616    39.018500  # C314 wall_ff
    316       1    1   0.000000000000     1.803100    -2.949616    39.018500  # C315 wall_ff
    317       1    1   0.000000000000     4.207300    -2.949616    39.018500  # C316 wall_ff
    318       1    1   0.000000000000     6.611400    -2.949616    39.018500  # C317 wall_ff
    319       1    1   0.000000000000     9.015600    -2.949616    39.018500  # C318 wall_ff